LAMMPS (2 Aug 2023 - Update 2)
OMP_NUM_THREADS environment is not set. Defaulting to 1 thread. (src/comm.cpp:98)
  using 1 OpenMP thread(s) per MPI task
variable home_dir string /home/superdelfin/work/Alfred_University/recursive_fracture/fracture_forge
variable surface_area equal 5530.884476124982
units real
atom_style charge
boundary p p p
neighbor 2.0 bin
neigh_modify every 1 delay 0
timestep 1
region my_simbox block 3.313954411528279 43.066346886249605 3.313954411528279 43.066346886249605 3.313954411528279 43.066346886249605
create_box 2 my_simbox
Created orthogonal box = (3.3139544 3.3139544 3.3139544) to (43.066347 43.066347 43.066347)
  1 by 1 by 1 MPI processor grid
print "$(dt)"
1
print "$(dt)"
1
thermo 100000
thermo_style custom step temp etotal pe vol density pxx pyy pzz
thermo_modify flush yes
compute stress_pa all stress/atom NULL
compute pe_pa all pe/atom
include /home/superdelfin/work/Alfred_University/recursive_fracture/fracture_forge/pot_SiO.FF
mass    1 28.086  #Si
mass    2 15.9994 #O

variable        sw_path string "${home_dir}/../potentials/MahadevanDu/sw_sionah.UNT"
/home/superdelfin/work/Alfred_University/recursive_fracture/fracture_forge/../potentials/MahadevanDu/sw_sionah.UNT
variable        table_path string "${home_dir}/../potentials/MahadevanDu/MGSiOHNa.UNT"
/home/superdelfin/work/Alfred_University/recursive_fracture/fracture_forge/../potentials/MahadevanDu/MGSiOHNa.UNT

pair_style      hybrid/overlay table linear 20000 sw
pair_coeff      * * sw ${sw_path} Si O
pair_coeff      * * sw /home/superdelfin/work/Alfred_University/recursive_fracture/fracture_forge/../potentials/MahadevanDu/sw_sionah.UNT Si O

pair_coeff      1 1 table ${table_path} SiSi 10
pair_coeff      1 1 table /home/superdelfin/work/Alfred_University/recursive_fracture/fracture_forge/../potentials/MahadevanDu/MGSiOHNa.UNT SiSi 10
WARNING: 7605 of 10000 force values in table SiSi are inconsistent with -dE/dr.
WARNING:  Should only be flagged at inflection points (src/pair_table.cpp:466)
pair_coeff      1 2 table ${table_path} OSi 10
pair_coeff      1 2 table /home/superdelfin/work/Alfred_University/recursive_fracture/fracture_forge/../potentials/MahadevanDu/MGSiOHNa.UNT OSi 10
WARNING: 8497 of 10000 force values in table OSi are inconsistent with -dE/dr.
WARNING:  Should only be flagged at inflection points (src/pair_table.cpp:466)

pair_coeff      2 2 table ${table_path} OO 10
pair_coeff      2 2 table /home/superdelfin/work/Alfred_University/recursive_fracture/fracture_forge/../potentials/MahadevanDu/MGSiOHNa.UNT OO 10
WARNING: 7515 of 10000 force values in table OO are inconsistent with -dE/dr.
WARNING:  Should only be flagged at inflection points (src/pair_table.cpp:466)
create_atoms 1 single 7.728839924624274 8.412360902138575 6.123918261996007
Created 1 atoms
  using lattice units in orthogonal box = (3.3139544 3.3139544 3.3139544) to (43.066347 43.066347 43.066347)
  create_atoms CPU = 0.000 seconds
create_atoms 2 single 8.324250360595583 8.142183990671361 7.644222578209904
Created 1 atoms
  using lattice units in orthogonal box = (3.3139544 3.3139544 3.3139544) to (43.066347 43.066347 43.066347)
  create_atoms CPU = 0.000 seconds
create_atoms 2 single 7.03020391473629 7.064295904603161 5.502684765503394
Created 1 atoms
  using lattice units in orthogonal box = (3.3139544 3.3139544 3.3139544) to (43.066347 43.066347 43.066347)
  create_atoms CPU = 0.000 seconds
create_atoms 1 single 6.170623911301685 5.890464852159026 6.199897535287601
Created 1 atoms
  using lattice units in orthogonal box = (3.3139544 3.3139544 3.3139544) to (43.066347 43.066347 43.066347)
  create_atoms CPU = 0.000 seconds
create_atoms 1 single 4.935698812940506 5.767423825929286 8.884111035426638
Created 1 atoms
  using lattice units in orthogonal box = (3.3139544 3.3139544 3.3139544) to (43.066347 43.066347 43.066347)
  create_atoms CPU = 0.000 seconds
create_atoms 2 single 5.938994498957749 6.341730765604469 7.739203164865951
Created 1 atoms
  using lattice units in orthogonal box = (3.3139544 3.3139544 3.3139544) to (43.066347 43.066347 43.066347)
  create_atoms CPU = 0.000 seconds
create_atoms 2 single 8.765772125834424 8.791101138257734 4.909317803096609
Created 1 atoms
  using lattice units in orthogonal box = (3.3139544 3.3139544 3.3139544) to (43.066347 43.066347 43.066347)
  create_atoms CPU = 0.000 seconds
create_atoms 2 single 4.977847119177298 4.14857875664187 8.8275120953842
Created 1 atoms
  using lattice units in orthogonal box = (3.3139544 3.3139544 3.3139544) to (43.066347 43.066347 43.066347)
  create_atoms CPU = 0.000 seconds
create_atoms 2 single 6.964010970010503 4.471062151332786 6.21193177591031
Created 1 atoms
  using lattice units in orthogonal box = (3.3139544 3.3139544 3.3139544) to (43.066347 43.066347 43.066347)
  create_atoms CPU = 0.000 seconds
create_atoms 2 single 4.75593063447062 5.535494453281631 5.4679556106550775
Created 1 atoms
  using lattice units in orthogonal box = (3.3139544 3.3139544 3.3139544) to (43.066347 43.066347 43.066347)
  create_atoms CPU = 0.000 seconds
create_atoms 2 single 6.486240834145966 8.602374960652902 9.625806137152239
Created 1 atoms
  using lattice units in orthogonal box = (3.3139544 3.3139544 3.3139544) to (43.066347 43.066347 43.066347)
  create_atoms CPU = 0.000 seconds
create_atoms 1 single 8.026023470715424 8.846339838588904 9.11353011680709
Created 1 atoms
  using lattice units in orthogonal box = (3.3139544 3.3139544 3.3139544) to (43.066347 43.066347 43.066347)
  create_atoms CPU = 0.000 seconds
create_atoms 1 single 3.724513243414243 4.254645603633131 5.310547481665819
Created 1 atoms
  using lattice units in orthogonal box = (3.3139544 3.3139544 3.3139544) to (43.066347 43.066347 43.066347)
  create_atoms CPU = 0.000 seconds
create_atoms 2 single 7.632902746634965 3.7562733023115444 9.179022883992667
Created 1 atoms
  using lattice units in orthogonal box = (3.3139544 3.3139544 3.3139544) to (43.066347 43.066347 43.066347)
  create_atoms CPU = 0.000 seconds
create_atoms 2 single 6.631725124583295 9.613549384665802 6.379380547801874
Created 1 atoms
  using lattice units in orthogonal box = (3.3139544 3.3139544 3.3139544) to (43.066347 43.066347 43.066347)
  create_atoms CPU = 0.000 seconds
create_atoms 2 single 6.671268225143818 4.141508908086481 3.617518376675967
Created 1 atoms
  using lattice units in orthogonal box = (3.3139544 3.3139544 3.3139544) to (43.066347 43.066347 43.066347)
  create_atoms CPU = 0.000 seconds
create_atoms 1 single 9.229911468754125 8.01977331913266 3.528366678897
Created 1 atoms
  using lattice units in orthogonal box = (3.3139544 3.3139544 3.3139544) to (43.066347 43.066347 43.066347)
  create_atoms CPU = 0.000 seconds
create_atoms 2 single 3.4918137635320234 6.491307188650467 8.629243439070311
Created 1 atoms
  using lattice units in orthogonal box = (3.3139544 3.3139544 3.3139544) to (43.066347 43.066347 43.066347)
  create_atoms CPU = 0.000 seconds
create_atoms 1 single 7.316591264421081 3.4583334454280603 4.968593490234776
Created 1 atoms
  using lattice units in orthogonal box = (3.3139544 3.3139544 3.3139544) to (43.066347 43.066347 43.066347)
  create_atoms CPU = 0.000 seconds
create_atoms 2 single 4.054048056244381 3.596981726319798 3.8487907995960247
Created 1 atoms
  using lattice units in orthogonal box = (3.3139544 3.3139544 3.3139544) to (43.066347 43.066347 43.066347)
  create_atoms CPU = 0.000 seconds
create_atoms 1 single 9.200841634989924 3.321756092387704 8.939638420176028
Created 1 atoms
  using lattice units in orthogonal box = (3.3139544 3.3139544 3.3139544) to (43.066347 43.066347 43.066347)
  create_atoms CPU = 0.000 seconds
create_atoms 2 single 9.98210013599792 4.363887603226246 7.920837002129204
Created 1 atoms
  using lattice units in orthogonal box = (3.3139544 3.3139544 3.3139544) to (43.066347 43.066347 43.066347)
  create_atoms CPU = 0.000 seconds
create_atoms 2 single 10.401243863748046 6.368498996396064 9.490866332721994
Created 1 atoms
  using lattice units in orthogonal box = (3.3139544 3.3139544 3.3139544) to (43.066347 43.066347 43.066347)
  create_atoms CPU = 0.000 seconds
create_atoms 2 single 11.522967462456592 6.49118049759399 7.031945265895537
Created 1 atoms
  using lattice units in orthogonal box = (3.3139544 3.3139544 3.3139544) to (43.066347 43.066347 43.066347)
  create_atoms CPU = 0.000 seconds
create_atoms 1 single 12.8358104110384 7.386996554073116 6.651484995037823
Created 1 atoms
  using lattice units in orthogonal box = (3.3139544 3.3139544 3.3139544) to (43.066347 43.066347 43.066347)
  create_atoms CPU = 0.000 seconds
create_atoms 2 single 14.263942894796617 6.617232286208941 6.925666273328466
Created 1 atoms
  using lattice units in orthogonal box = (3.3139544 3.3139544 3.3139544) to (43.066347 43.066347 43.066347)
  create_atoms CPU = 0.000 seconds
create_atoms 2 single 12.694754011507252 8.90766889046184 7.233785020650319
Created 1 atoms
  using lattice units in orthogonal box = (3.3139544 3.3139544 3.3139544) to (43.066347 43.066347 43.066347)
  create_atoms CPU = 0.000 seconds
create_atoms 2 single 12.848868763332566 7.578982221951673 5.025812618999515
Created 1 atoms
  using lattice units in orthogonal box = (3.3139544 3.3139544 3.3139544) to (43.066347 43.066347 43.066347)
  create_atoms CPU = 0.000 seconds
create_atoms 2 single 12.449241286178474 4.856546540337418 8.886299469694787
Created 1 atoms
  using lattice units in orthogonal box = (3.3139544 3.3139544 3.3139544) to (43.066347 43.066347 43.066347)
  create_atoms CPU = 0.000 seconds
create_atoms 1 single 11.085638221170473 5.5028896817429525 8.247876314592478
Created 1 atoms
  using lattice units in orthogonal box = (3.3139544 3.3139544 3.3139544) to (43.066347 43.066347 43.066347)
  create_atoms CPU = 0.000 seconds
create_atoms 1 single 15.469114491114357 6.413561403994863 5.822412769723419
Created 1 atoms
  using lattice units in orthogonal box = (3.3139544 3.3139544 3.3139544) to (43.066347 43.066347 43.066347)
  create_atoms CPU = 0.000 seconds
create_atoms 2 single 15.154401034749625 5.247768517666288 4.740184910435276
Created 1 atoms
  using lattice units in orthogonal box = (3.3139544 3.3139544 3.3139544) to (43.066347 43.066347 43.066347)
  create_atoms CPU = 0.000 seconds
create_atoms 2 single 15.619122033979341 7.868440677494014 5.089120246652088
Created 1 atoms
  using lattice units in orthogonal box = (3.3139544 3.3139544 3.3139544) to (43.066347 43.066347 43.066347)
  create_atoms CPU = 0.000 seconds
create_atoms 1 single 12.100014027780379 7.006815282606036 3.703241444180008
Created 1 atoms
  using lattice units in orthogonal box = (3.3139544 3.3139544 3.3139544) to (43.066347 43.066347 43.066347)
  create_atoms CPU = 0.000 seconds
create_atoms 1 single 15.525954573375973 3.601892160520413 9.378259055162449
Created 1 atoms
  using lattice units in orthogonal box = (3.3139544 3.3139544 3.3139544) to (43.066347 43.066347 43.066347)
  create_atoms CPU = 0.000 seconds
create_atoms 2 single 10.488703452444026 7.056221698378245 3.9264110703796224
Created 1 atoms
  using lattice units in orthogonal box = (3.3139544 3.3139544 3.3139544) to (43.066347 43.066347 43.066347)
  create_atoms CPU = 0.000 seconds
create_atoms 2 single 16.161353894550974 4.418323098252963 8.117207267307926
Created 1 atoms
  using lattice units in orthogonal box = (3.3139544 3.3139544 3.3139544) to (43.066347 43.066347 43.066347)
  create_atoms CPU = 0.000 seconds
create_atoms 1 single 16.366907558556633 9.161749810873477 5.7564524620223185
Created 1 atoms
  using lattice units in orthogonal box = (3.3139544 3.3139544 3.3139544) to (43.066347 43.066347 43.066347)
  create_atoms CPU = 0.000 seconds
create_atoms 2 single 12.549628241608424 5.448783494170211 3.456037991269462
Created 1 atoms
  using lattice units in orthogonal box = (3.3139544 3.3139544 3.3139544) to (43.066347 43.066347 43.066347)
  create_atoms CPU = 0.000 seconds
create_atoms 2 single 16.42104322285762 8.797724556956327 7.348450700814834
Created 1 atoms
  using lattice units in orthogonal box = (3.3139544 3.3139544 3.3139544) to (43.066347 43.066347 43.066347)
  create_atoms CPU = 0.000 seconds
create_atoms 2 single 16.969239004492312 6.141166149505335 6.429472931155607
Created 1 atoms
  using lattice units in orthogonal box = (3.3139544 3.3139544 3.3139544) to (43.066347 43.066347 43.066347)
  create_atoms CPU = 0.000 seconds
create_atoms 2 single 22.51477037767262 8.699947307216108 4.236631332580928
Created 1 atoms
  using lattice units in orthogonal box = (3.3139544 3.3139544 3.3139544) to (43.066347 43.066347 43.066347)
  create_atoms CPU = 0.000 seconds
create_atoms 2 single 16.93274923421866 9.343786507425547 9.791485774102625
Created 1 atoms
  using lattice units in orthogonal box = (3.3139544 3.3139544 3.3139544) to (43.066347 43.066347 43.066347)
  create_atoms CPU = 0.000 seconds
create_atoms 2 single 22.409644087855455 6.044506522587487 4.68825320091619
Created 1 atoms
  using lattice units in orthogonal box = (3.3139544 3.3139544 3.3139544) to (43.066347 43.066347 43.066347)
  create_atoms CPU = 0.000 seconds
create_atoms 2 single 17.352438935008657 6.762708584769899 8.889337521848343
Created 1 atoms
  using lattice units in orthogonal box = (3.3139544 3.3139544 3.3139544) to (43.066347 43.066347 43.066347)
  create_atoms CPU = 0.000 seconds
create_atoms 2 single 21.122003519092306 5.498273670755766 9.021729491286605
Created 1 atoms
  using lattice units in orthogonal box = (3.3139544 3.3139544 3.3139544) to (43.066347 43.066347 43.066347)
  create_atoms CPU = 0.000 seconds
create_atoms 1 single 19.92380011932997 4.38879714315931 9.08835119146785
Created 1 atoms
  using lattice units in orthogonal box = (3.3139544 3.3139544 3.3139544) to (43.066347 43.066347 43.066347)
  create_atoms CPU = 0.000 seconds
create_atoms 1 single 17.381270534040887 5.476421432211333 7.86722507529572
Created 1 atoms
  using lattice units in orthogonal box = (3.3139544 3.3139544 3.3139544) to (43.066347 43.066347 43.066347)
  create_atoms CPU = 0.000 seconds
create_atoms 2 single 18.813759777838353 4.712996393078209 7.926016217259632
Created 1 atoms
  using lattice units in orthogonal box = (3.3139544 3.3139544 3.3139544) to (43.066347 43.066347 43.066347)
  create_atoms CPU = 0.000 seconds
create_atoms 1 single 17.450141404432458 8.3696726787207 8.578400087314336
Created 1 atoms
  using lattice units in orthogonal box = (3.3139544 3.3139544 3.3139544) to (43.066347 43.066347 43.066347)
  create_atoms CPU = 0.000 seconds
create_atoms 2 single 18.990466384780223 8.676214621748292 8.09314142357875
Created 1 atoms
  using lattice units in orthogonal box = (3.3139544 3.3139544 3.3139544) to (43.066347 43.066347 43.066347)
  create_atoms CPU = 0.000 seconds
create_atoms 2 single 17.780937791235733 9.240443275167806 4.9394371764535885
Created 1 atoms
  using lattice units in orthogonal box = (3.3139544 3.3139544 3.3139544) to (43.066347 43.066347 43.066347)
  create_atoms CPU = 0.000 seconds
create_atoms 1 single 22.538627136888902 5.808885501216989 9.790331637569563
Created 1 atoms
  using lattice units in orthogonal box = (3.3139544 3.3139544 3.3139544) to (43.066347 43.066347 43.066347)
  create_atoms CPU = 0.000 seconds
create_atoms 2 single 21.787737367801466 9.236524527035417 8.154763992525734
Created 1 atoms
  using lattice units in orthogonal box = (3.3139544 3.3139544 3.3139544) to (43.066347 43.066347 43.066347)
  create_atoms CPU = 0.000 seconds
create_atoms 1 single 20.27161122518722 9.456438793440102 8.747471145249838
Created 1 atoms
  using lattice units in orthogonal box = (3.3139544 3.3139544 3.3139544) to (43.066347 43.066347 43.066347)
  create_atoms CPU = 0.000 seconds
create_atoms 1 single 22.75579766795792 4.452226440295827 4.822042351584455
Created 1 atoms
  using lattice units in orthogonal box = (3.3139544 3.3139544 3.3139544) to (43.066347 43.066347 43.066347)
  create_atoms CPU = 0.000 seconds
create_atoms 2 single 21.379155048963163 3.587212199657664 4.8184180945801085
Created 1 atoms
  using lattice units in orthogonal box = (3.3139544 3.3139544 3.3139544) to (43.066347 43.066347 43.066347)
  create_atoms CPU = 0.000 seconds
create_atoms 1 single 17.994579922986148 9.891254615459436 3.4442662733815097
Created 1 atoms
  using lattice units in orthogonal box = (3.3139544 3.3139544 3.3139544) to (43.066347 43.066347 43.066347)
  create_atoms CPU = 0.000 seconds
create_atoms 1 single 23.306301532883367 7.396651045223656 4.824865881484519
Created 1 atoms
  using lattice units in orthogonal box = (3.3139544 3.3139544 3.3139544) to (43.066347 43.066347 43.066347)
  create_atoms CPU = 0.000 seconds
create_atoms 1 single 28.515985685326875 6.40931208474848 5.940841735294887
Created 1 atoms
  using lattice units in orthogonal box = (3.3139544 3.3139544 3.3139544) to (43.066347 43.066347 43.066347)
  create_atoms CPU = 0.000 seconds
create_atoms 1 single 25.387291695854906 5.663564690429155 8.54177666428295
Created 1 atoms
  using lattice units in orthogonal box = (3.3139544 3.3139544 3.3139544) to (43.066347 43.066347 43.066347)
  create_atoms CPU = 0.000 seconds
create_atoms 2 single 25.89362902667276 7.093289504797788 7.896703903807657
Created 1 atoms
  using lattice units in orthogonal box = (3.3139544 3.3139544 3.3139544) to (43.066347 43.066347 43.066347)
  create_atoms CPU = 0.000 seconds
create_atoms 1 single 25.087982100318996 8.269367975943236 7.125031908412562
Created 1 atoms
  using lattice units in orthogonal box = (3.3139544 3.3139544 3.3139544) to (43.066347 43.066347 43.066347)
  create_atoms CPU = 0.000 seconds
create_atoms 2 single 25.767715434838944 4.354492544180364 7.652963272043394
Created 1 atoms
  using lattice units in orthogonal box = (3.3139544 3.3139544 3.3139544) to (43.066347 43.066347 43.066347)
  create_atoms CPU = 0.000 seconds
create_atoms 2 single 28.32477628423202 7.1549930024244555 9.176624491760958
Created 1 atoms
  using lattice units in orthogonal box = (3.3139544 3.3139544 3.3139544) to (43.066347 43.066347 43.066347)
  create_atoms CPU = 0.000 seconds
create_atoms 2 single 26.959811193234465 6.143438026051406 5.478977989311587
Created 1 atoms
  using lattice units in orthogonal box = (3.3139544 3.3139544 3.3139544) to (43.066347 43.066347 43.066347)
  create_atoms CPU = 0.000 seconds
create_atoms 2 single 28.77745649677067 7.854739729481673 6.650813151854263
Created 1 atoms
  using lattice units in orthogonal box = (3.3139544 3.3139544 3.3139544) to (43.066347 43.066347 43.066347)
  create_atoms CPU = 0.000 seconds
create_atoms 1 single 28.86393465126249 8.389044035115608 8.213718048242953
Created 1 atoms
  using lattice units in orthogonal box = (3.3139544 3.3139544 3.3139544) to (43.066347 43.066347 43.066347)
  create_atoms CPU = 0.000 seconds
create_atoms 2 single 26.104091194002574 8.805547212150591 5.956006355355974
Created 1 atoms
  using lattice units in orthogonal box = (3.3139544 3.3139544 3.3139544) to (43.066347 43.066347 43.066347)
  create_atoms CPU = 0.000 seconds
create_atoms 1 single 26.249486568024405 6.496925168148577 4.04181197764943
Created 1 atoms
  using lattice units in orthogonal box = (3.3139544 3.3139544 3.3139544) to (43.066347 43.066347 43.066347)
  create_atoms CPU = 0.000 seconds
create_atoms 2 single 24.699236716501353 7.0896933639365285 3.9826781446010946
Created 1 atoms
  using lattice units in orthogonal box = (3.3139544 3.3139544 3.3139544) to (43.066347 43.066347 43.066347)
  create_atoms CPU = 0.000 seconds
create_atoms 2 single 23.798920055680423 5.950242162167905 8.761297742884105
Created 1 atoms
  using lattice units in orthogonal box = (3.3139544 3.3139544 3.3139544) to (43.066347 43.066347 43.066347)
  create_atoms CPU = 0.000 seconds
create_atoms 2 single 23.776521118827286 7.654297386680818 6.362669380747929
Created 1 atoms
  using lattice units in orthogonal box = (3.3139544 3.3139544 3.3139544) to (43.066347 43.066347 43.066347)
  create_atoms CPU = 0.000 seconds
create_atoms 2 single 29.187054346531617 3.904916104408378 9.310877552541971
Created 1 atoms
  using lattice units in orthogonal box = (3.3139544 3.3139544 3.3139544) to (43.066347 43.066347 43.066347)
  create_atoms CPU = 0.000 seconds
create_atoms 2 single 29.106113705687083 5.263783928385951 7.0001734001420886
Created 1 atoms
  using lattice units in orthogonal box = (3.3139544 3.3139544 3.3139544) to (43.066347 43.066347 43.066347)
  create_atoms CPU = 0.000 seconds
create_atoms 2 single 28.943258955048897 3.6607268550492136 4.472013164302792
Created 1 atoms
  using lattice units in orthogonal box = (3.3139544 3.3139544 3.3139544) to (43.066347 43.066347 43.066347)
  create_atoms CPU = 0.000 seconds
create_atoms 2 single 24.55073218962879 9.426567238811387 8.146450238365043
Created 1 atoms
  using lattice units in orthogonal box = (3.3139544 3.3139544 3.3139544) to (43.066347 43.066347 43.066347)
  create_atoms CPU = 0.000 seconds
create_atoms 1 single 25.441916844155323 3.651718248605419 3.61666944195596
Created 1 atoms
  using lattice units in orthogonal box = (3.3139544 3.3139544 3.3139544) to (43.066347 43.066347 43.066347)
  create_atoms CPU = 0.000 seconds
create_atoms 2 single 29.42883966741179 6.197829163884002 4.575144471984093
Created 1 atoms
  using lattice units in orthogonal box = (3.3139544 3.3139544 3.3139544) to (43.066347 43.066347 43.066347)
  create_atoms CPU = 0.000 seconds
create_atoms 2 single 23.837615471383216 4.055690157189854 3.6376442653664762
Created 1 atoms
  using lattice units in orthogonal box = (3.3139544 3.3139544 3.3139544) to (43.066347 43.066347 43.066347)
  create_atoms CPU = 0.000 seconds
create_atoms 2 single 23.612050413552883 4.176620355344726 6.189056214050999
Created 1 atoms
  using lattice units in orthogonal box = (3.3139544 3.3139544 3.3139544) to (43.066347 43.066347 43.066347)
  create_atoms CPU = 0.000 seconds
create_atoms 2 single 27.144248381739647 7.72967859591083 3.4560858517906894
Created 1 atoms
  using lattice units in orthogonal box = (3.3139544 3.3139544 3.3139544) to (43.066347 43.066347 43.066347)
  create_atoms CPU = 0.000 seconds
create_atoms 2 single 28.08753002143367 9.822224144811958 8.282179491478937
Created 1 atoms
  using lattice units in orthogonal box = (3.3139544 3.3139544 3.3139544) to (43.066347 43.066347 43.066347)
  create_atoms CPU = 0.000 seconds
create_atoms 1 single 24.95851323078585 3.3419183433663586 6.637446511148174
Created 1 atoms
  using lattice units in orthogonal box = (3.3139544 3.3139544 3.3139544) to (43.066347 43.066347 43.066347)
  create_atoms CPU = 0.000 seconds
create_atoms 1 single 30.089278511678955 4.752458665093474 8.236305956394535
Created 1 atoms
  using lattice units in orthogonal box = (3.3139544 3.3139544 3.3139544) to (43.066347 43.066347 43.066347)
  create_atoms CPU = 0.000 seconds
create_atoms 1 single 30.091734086776608 4.797584695966912 4.093167165713167
Created 1 atoms
  using lattice units in orthogonal box = (3.3139544 3.3139544 3.3139544) to (43.066347 43.066347 43.066347)
  create_atoms CPU = 0.000 seconds
create_atoms 2 single 30.462236157440838 8.539479922581016 8.55952828923634
Created 1 atoms
  using lattice units in orthogonal box = (3.3139544 3.3139544 3.3139544) to (43.066347 43.066347 43.066347)
  create_atoms CPU = 0.000 seconds
create_atoms 1 single 31.613996221269602 7.3806185086359255 8.65755491137146
Created 1 atoms
  using lattice units in orthogonal box = (3.3139544 3.3139544 3.3139544) to (43.066347 43.066347 43.066347)
  create_atoms CPU = 0.000 seconds
create_atoms 2 single 32.17782172800252 7.047780888061366 7.146422533045265
Created 1 atoms
  using lattice units in orthogonal box = (3.3139544 3.3139544 3.3139544) to (43.066347 43.066347 43.066347)
  create_atoms CPU = 0.000 seconds
create_atoms 2 single 34.43573469424267 6.164844593193692 5.925051383324261
Created 1 atoms
  using lattice units in orthogonal box = (3.3139544 3.3139544 3.3139544) to (43.066347 43.066347 43.066347)
  create_atoms CPU = 0.000 seconds
create_atoms 1 single 33.38072812798798 7.417544045895137 6.095129003007018
Created 1 atoms
  using lattice units in orthogonal box = (3.3139544 3.3139544 3.3139544) to (43.066347 43.066347 43.066347)
  create_atoms CPU = 0.000 seconds
create_atoms 2 single 30.823152337591033 5.981883773649211 9.03688117082087
Created 1 atoms
  using lattice units in orthogonal box = (3.3139544 3.3139544 3.3139544) to (43.066347 43.066347 43.066347)
  create_atoms CPU = 0.000 seconds
create_atoms 1 single 35.58462023397275 5.464522767846498 4.972006370356765
Created 1 atoms
  using lattice units in orthogonal box = (3.3139544 3.3139544 3.3139544) to (43.066347 43.066347 43.066347)
  create_atoms CPU = 0.000 seconds
create_atoms 2 single 34.14035422103424 8.779367656431482 6.636519349144115
Created 1 atoms
  using lattice units in orthogonal box = (3.3139544 3.3139544 3.3139544) to (43.066347 43.066347 43.066347)
  create_atoms CPU = 0.000 seconds
create_atoms 2 single 32.66715384519327 7.901787209381134 4.6862815941808895
Created 1 atoms
  using lattice units in orthogonal box = (3.3139544 3.3139544 3.3139544) to (43.066347 43.066347 43.066347)
  create_atoms CPU = 0.000 seconds
create_atoms 2 single 32.80419055630229 7.738736236674225 9.716611576771754
Created 1 atoms
  using lattice units in orthogonal box = (3.3139544 3.3139544 3.3139544) to (43.066347 43.066347 43.066347)
  create_atoms CPU = 0.000 seconds
create_atoms 2 single 31.411045736810607 4.518309086480247 5.043961620712935
Created 1 atoms
  using lattice units in orthogonal box = (3.3139544 3.3139544 3.3139544) to (43.066347 43.066347 43.066347)
  create_atoms CPU = 0.000 seconds
create_atoms 2 single 35.44917491563336 8.00297607756241 9.468783539807527
Created 1 atoms
  using lattice units in orthogonal box = (3.3139544 3.3139544 3.3139544) to (43.066347 43.066347 43.066347)
  create_atoms CPU = 0.000 seconds
create_atoms 2 single 34.08978660979915 5.580385361390024 9.268814491408957
Created 1 atoms
  using lattice units in orthogonal box = (3.3139544 3.3139544 3.3139544) to (43.066347 43.066347 43.066347)
  create_atoms CPU = 0.000 seconds
create_atoms 1 single 32.30384547618331 9.373468610014426 4.013675779352467
Created 1 atoms
  using lattice units in orthogonal box = (3.3139544 3.3139544 3.3139544) to (43.066347 43.066347 43.066347)
  create_atoms CPU = 0.000 seconds
create_atoms 2 single 34.84765964330445 4.7809228765263345 3.644496203018386
Created 1 atoms
  using lattice units in orthogonal box = (3.3139544 3.3139544 3.3139544) to (43.066347 43.066347 43.066347)
  create_atoms CPU = 0.000 seconds
create_atoms 2 single 31.207323568135752 3.762622848646752 7.545975408389023
Created 1 atoms
  using lattice units in orthogonal box = (3.3139544 3.3139544 3.3139544) to (43.066347 43.066347 43.066347)
  create_atoms CPU = 0.000 seconds
create_atoms 2 single 30.69357685853552 9.772954394122882 4.061510513221485
Created 1 atoms
  using lattice units in orthogonal box = (3.3139544 3.3139544 3.3139544) to (43.066347 43.066347 43.066347)
  create_atoms CPU = 0.000 seconds
create_atoms 2 single 35.978019460228914 9.763252166857384 5.034031582603767
Created 1 atoms
  using lattice units in orthogonal box = (3.3139544 3.3139544 3.3139544) to (43.066347 43.066347 43.066347)
  create_atoms CPU = 0.000 seconds
create_atoms 2 single 36.40245340578077 4.175401497208827 5.588627503879584
Created 1 atoms
  using lattice units in orthogonal box = (3.3139544 3.3139544 3.3139544) to (43.066347 43.066347 43.066347)
  create_atoms CPU = 0.000 seconds
create_atoms 1 single 33.71477794121387 4.103920148590511 9.871498765100638
Created 1 atoms
  using lattice units in orthogonal box = (3.3139544 3.3139544 3.3139544) to (43.066347 43.066347 43.066347)
  create_atoms CPU = 0.000 seconds
create_atoms 2 single 36.64856254718846 6.614592566570099 4.483860345180492
Created 1 atoms
  using lattice units in orthogonal box = (3.3139544 3.3139544 3.3139544) to (43.066347 43.066347 43.066347)
  create_atoms CPU = 0.000 seconds
create_atoms 2 single 39.696682510492444 4.427496600539328 6.8170820506235
Created 1 atoms
  using lattice units in orthogonal box = (3.3139544 3.3139544 3.3139544) to (43.066347 43.066347 43.066347)
  create_atoms CPU = 0.000 seconds
create_atoms 2 single 40.71302013325193 7.468351386323911 8.972029545935856
Created 1 atoms
  using lattice units in orthogonal box = (3.3139544 3.3139544 3.3139544) to (43.066347 43.066347 43.066347)
  create_atoms CPU = 0.000 seconds
create_atoms 1 single 41.80229351940579 6.3156955889113915 9.348207753989502
Created 1 atoms
  using lattice units in orthogonal box = (3.3139544 3.3139544 3.3139544) to (43.066347 43.066347 43.066347)
  create_atoms CPU = 0.000 seconds
create_atoms 1 single 39.901425498981645 4.149474423041021 8.425439146357064
Created 1 atoms
  using lattice units in orthogonal box = (3.3139544 3.3139544 3.3139544) to (43.066347 43.066347 43.066347)
  create_atoms CPU = 0.000 seconds
create_atoms 1 single 40.27552746250282 8.857778902970152 9.741492996169725
Created 1 atoms
  using lattice units in orthogonal box = (3.3139544 3.3139544 3.3139544) to (43.066347 43.066347 43.066347)
  create_atoms CPU = 0.000 seconds
create_atoms 2 single 41.2989140420868 4.813510845162132 8.961616876861225
Created 1 atoms
  using lattice units in orthogonal box = (3.3139544 3.3139544 3.3139544) to (43.066347 43.066347 43.066347)
  create_atoms CPU = 0.000 seconds
create_atoms 1 single 40.41803072180399 4.545980640135042 5.33696571445481
Created 1 atoms
  using lattice units in orthogonal box = (3.3139544 3.3139544 3.3139544) to (43.066347 43.066347 43.066347)
  create_atoms CPU = 0.000 seconds
create_atoms 2 single 39.67887551299704 5.618705649637659 4.352781724844034
Created 1 atoms
  using lattice units in orthogonal box = (3.3139544 3.3139544 3.3139544) to (43.066347 43.066347 43.066347)
  create_atoms CPU = 0.000 seconds
create_atoms 2 single 38.747081353168056 4.921029957884463 9.316631166561356
Created 1 atoms
  using lattice units in orthogonal box = (3.3139544 3.3139544 3.3139544) to (43.066347 43.066347 43.066347)
  create_atoms CPU = 0.000 seconds
create_atoms 2 single 41.993837890157245 4.8910304224027845 5.562511733315064
Created 1 atoms
  using lattice units in orthogonal box = (3.3139544 3.3139544 3.3139544) to (43.066347 43.066347 43.066347)
  create_atoms CPU = 0.000 seconds
create_atoms 2 single 39.063747653101416 9.527461602181104 8.840132001986765
Created 1 atoms
  using lattice units in orthogonal box = (3.3139544 3.3139544 3.3139544) to (43.066347 43.066347 43.066347)
  create_atoms CPU = 0.000 seconds
create_atoms 2 single 41.60639451715779 9.800700988135231 9.919686412827089
Created 1 atoms
  using lattice units in orthogonal box = (3.3139544 3.3139544 3.3139544) to (43.066347 43.066347 43.066347)
  create_atoms CPU = 0.000 seconds
create_atoms 1 single 6.167024060363852 15.943891718582638 3.502745492395873
Created 1 atoms
  using lattice units in orthogonal box = (3.3139544 3.3139544 3.3139544) to (43.066347 43.066347 43.066347)
  create_atoms CPU = 0.000 seconds
create_atoms 2 single 3.3954021059691932 12.85103705628763 8.646966590527404
Created 1 atoms
  using lattice units in orthogonal box = (3.3139544 3.3139544 3.3139544) to (43.066347 43.066347 43.066347)
  create_atoms CPU = 0.000 seconds
create_atoms 1 single 3.6961167244008237 14.420321401328977 4.3075302233702635
Created 1 atoms
  using lattice units in orthogonal box = (3.3139544 3.3139544 3.3139544) to (43.066347 43.066347 43.066347)
  create_atoms CPU = 0.000 seconds
create_atoms 2 single 8.3535962764951 10.437191109954101 8.883509477736819
Created 1 atoms
  using lattice units in orthogonal box = (3.3139544 3.3139544 3.3139544) to (43.066347 43.066347 43.066347)
  create_atoms CPU = 0.000 seconds
create_atoms 2 single 4.261363899206712 10.420276806020386 9.100525057082754
Created 1 atoms
  using lattice units in orthogonal box = (3.3139544 3.3139544 3.3139544) to (43.066347 43.066347 43.066347)
  create_atoms CPU = 0.000 seconds
create_atoms 1 single 4.114217587580043 11.555620165389357 7.9264604051189425
Created 1 atoms
  using lattice units in orthogonal box = (3.3139544 3.3139544 3.3139544) to (43.066347 43.066347 43.066347)
  create_atoms CPU = 0.000 seconds
create_atoms 1 single 6.636167541564232 11.261525952707492 6.306217197575065
Created 1 atoms
  using lattice units in orthogonal box = (3.3139544 3.3139544 3.3139544) to (43.066347 43.066347 43.066347)
  create_atoms CPU = 0.000 seconds
create_atoms 2 single 5.6200583071903525 11.918795538938133 7.4076832617866035
Created 1 atoms
  using lattice units in orthogonal box = (3.3139544 3.3139544 3.3139544) to (43.066347 43.066347 43.066347)
  create_atoms CPU = 0.000 seconds
create_atoms 2 single 8.187995169120795 11.682445506545202 6.623835143017542
Created 1 atoms
  using lattice units in orthogonal box = (3.3139544 3.3139544 3.3139544) to (43.066347 43.066347 43.066347)
  create_atoms CPU = 0.000 seconds
create_atoms 2 single 6.120560551266113 11.723303793872828 4.83634051389189
Created 1 atoms
  using lattice units in orthogonal box = (3.3139544 3.3139544 3.3139544) to (43.066347 43.066347 43.066347)
  create_atoms CPU = 0.000 seconds
create_atoms 2 single 8.928572137956811 14.987834436109592 7.80389378243175
Created 1 atoms
  using lattice units in orthogonal box = (3.3139544 3.3139544 3.3139544) to (43.066347 43.066347 43.066347)
  create_atoms CPU = 0.000 seconds
create_atoms 2 single 4.591682413690447 15.30011810963142 9.322656865385806
Created 1 atoms
  using lattice units in orthogonal box = (3.3139544 3.3139544 3.3139544) to (43.066347 43.066347 43.066347)
  create_atoms CPU = 0.000 seconds
create_atoms 1 single 9.262264043290505 11.248828218299012 7.793545904198651
Created 1 atoms
  using lattice units in orthogonal box = (3.3139544 3.3139544 3.3139544) to (43.066347 43.066347 43.066347)
  create_atoms CPU = 0.000 seconds
create_atoms 2 single 5.299485009227755 14.770628898964622 4.242941980974166
Created 1 atoms
  using lattice units in orthogonal box = (3.3139544 3.3139544 3.3139544) to (43.066347 43.066347 43.066347)
  create_atoms CPU = 0.000 seconds
create_atoms 2 single 8.159026150971284 13.128512153996292 3.9075906750398537
Created 1 atoms
  using lattice units in orthogonal box = (3.3139544 3.3139544 3.3139544) to (43.066347 43.066347 43.066347)
  create_atoms CPU = 0.000 seconds
create_atoms 1 single 6.926386288085106 12.1230925297585 3.462926552871912
Created 1 atoms
  using lattice units in orthogonal box = (3.3139544 3.3139544 3.3139544) to (43.066347 43.066347 43.066347)
  create_atoms CPU = 0.000 seconds
create_atoms 2 single 7.803442966056738 15.657529499477649 3.4412457723450847
Created 1 atoms
  using lattice units in orthogonal box = (3.3139544 3.3139544 3.3139544) to (43.066347 43.066347 43.066347)
  create_atoms CPU = 0.000 seconds
create_atoms 1 single 3.3956777421085675 14.200312356622343 9.580280989521277
Created 1 atoms
  using lattice units in orthogonal box = (3.3139544 3.3139544 3.3139544) to (43.066347 43.066347 43.066347)
  create_atoms CPU = 0.000 seconds
create_atoms 1 single 8.635866130274586 16.544659339753384 7.4415283636785325
Created 1 atoms
  using lattice units in orthogonal box = (3.3139544 3.3139544 3.3139544) to (43.066347 43.066347 43.066347)
  create_atoms CPU = 0.000 seconds
create_atoms 2 single 10.005898419019346 12.565922867818886 8.394941104272196
Created 1 atoms
  using lattice units in orthogonal box = (3.3139544 3.3139544 3.3139544) to (43.066347 43.066347 43.066347)
  create_atoms CPU = 0.000 seconds
create_atoms 2 single 10.382574598744158 10.245453207759011 7.137716772150289
Created 1 atoms
  using lattice units in orthogonal box = (3.3139544 3.3139544 3.3139544) to (43.066347 43.066347 43.066347)
  create_atoms CPU = 0.000 seconds
create_atoms 1 single 10.225869290869399 14.011219533675424 7.680650711041349
Created 1 atoms
  using lattice units in orthogonal box = (3.3139544 3.3139544 3.3139544) to (43.066347 43.066347 43.066347)
  create_atoms CPU = 0.000 seconds
create_atoms 2 single 10.452463233681833 13.655872756075196 6.095121172357831
Created 1 atoms
  using lattice units in orthogonal box = (3.3139544 3.3139544 3.3139544) to (43.066347 43.066347 43.066347)
  create_atoms CPU = 0.000 seconds
create_atoms 2 single 15.544749173204227 10.532503543037445 5.393271541577515
Created 1 atoms
  using lattice units in orthogonal box = (3.3139544 3.3139544 3.3139544) to (43.066347 43.066347 43.066347)
  create_atoms CPU = 0.000 seconds
create_atoms 1 single 11.95782527142671 10.270743403631116 6.663390339167895
Created 1 atoms
  using lattice units in orthogonal box = (3.3139544 3.3139544 3.3139544) to (43.066347 43.066347 43.066347)
  create_atoms CPU = 0.000 seconds
create_atoms 2 single 12.024791405483594 10.44237553493701 5.037559978193896
Created 1 atoms
  using lattice units in orthogonal box = (3.3139544 3.3139544 3.3139544) to (43.066347 43.066347 43.066347)
  create_atoms CPU = 0.000 seconds
create_atoms 1 single 11.37509615163115 14.227893916648236 4.874533167731317
Created 1 atoms
  using lattice units in orthogonal box = (3.3139544 3.3139544 3.3139544) to (43.066347 43.066347 43.066347)
  create_atoms CPU = 0.000 seconds
create_atoms 2 single 12.752292666170371 11.537031231561043 7.344052682726611
Created 1 atoms
  using lattice units in orthogonal box = (3.3139544 3.3139544 3.3139544) to (43.066347 43.066347 43.066347)
  create_atoms CPU = 0.000 seconds
create_atoms 2 single 11.978214145493814 10.771013641346219 9.652755028604302
Created 1 atoms
  using lattice units in orthogonal box = (3.3139544 3.3139544 3.3139544) to (43.066347 43.066347 43.066347)
  create_atoms CPU = 0.000 seconds
create_atoms 2 single 14.586982585459863 10.745866960534247 9.225073303700022
Created 1 atoms
  using lattice units in orthogonal box = (3.3139544 3.3139544 3.3139544) to (43.066347 43.066347 43.066347)
  create_atoms CPU = 0.000 seconds
create_atoms 2 single 11.49992734831208 14.834852666918042 8.287921056181844
Created 1 atoms
  using lattice units in orthogonal box = (3.3139544 3.3139544 3.3139544) to (43.066347 43.066347 43.066347)
  create_atoms CPU = 0.000 seconds
create_atoms 1 single 13.206522663232592 11.601927816881785 8.91486045083529
Created 1 atoms
  using lattice units in orthogonal box = (3.3139544 3.3139544 3.3139544) to (43.066347 43.066347 43.066347)
  create_atoms CPU = 0.000 seconds
create_atoms 2 single 14.15652230798405 15.391797798477924 8.155235198114587
Created 1 atoms
  using lattice units in orthogonal box = (3.3139544 3.3139544 3.3139544) to (43.066347 43.066347 43.066347)
  create_atoms CPU = 0.000 seconds
create_atoms 2 single 13.338536282949836 13.167372211716673 9.39972739072982
Created 1 atoms
  using lattice units in orthogonal box = (3.3139544 3.3139544 3.3139544) to (43.066347 43.066347 43.066347)
  create_atoms CPU = 0.000 seconds
create_atoms 1 single 12.931698167747182 14.734267058188442 9.046432910955888
Created 1 atoms
  using lattice units in orthogonal box = (3.3139544 3.3139544 3.3139544) to (43.066347 43.066347 43.066347)
  create_atoms CPU = 0.000 seconds
create_atoms 1 single 15.733474146209579 15.479641752221603 8.629181345717548
Created 1 atoms
  using lattice units in orthogonal box = (3.3139544 3.3139544 3.3139544) to (43.066347 43.066347 43.066347)
  create_atoms CPU = 0.000 seconds
create_atoms 2 single 12.099750628204482 15.60938695814061 5.364883475428907
Created 1 atoms
  using lattice units in orthogonal box = (3.3139544 3.3139544 3.3139544) to (43.066347 43.066347 43.066347)
  create_atoms CPU = 0.000 seconds
create_atoms 1 single 12.475237893817072 11.571102779663189 3.9372056061668443
Created 1 atoms
  using lattice units in orthogonal box = (3.3139544 3.3139544 3.3139544) to (43.066347 43.066347 43.066347)
  create_atoms CPU = 0.000 seconds
create_atoms 2 single 12.500319273411993 13.0757081813618 4.583226543680913
Created 1 atoms
  using lattice units in orthogonal box = (3.3139544 3.3139544 3.3139544) to (43.066347 43.066347 43.066347)
  create_atoms CPU = 0.000 seconds
create_atoms 1 single 16.186870202034168 10.802359185242056 9.608991200156732
Created 1 atoms
  using lattice units in orthogonal box = (3.3139544 3.3139544 3.3139544) to (43.066347 43.066347 43.066347)
  create_atoms CPU = 0.000 seconds
create_atoms 1 single 15.456602351026145 11.313415098349363 3.9334627828677813
Created 1 atoms
  using lattice units in orthogonal box = (3.3139544 3.3139544 3.3139544) to (43.066347 43.066347 43.066347)
  create_atoms CPU = 0.000 seconds
create_atoms 2 single 15.92537004723335 12.859636165451752 4.164994413323874
Created 1 atoms
  using lattice units in orthogonal box = (3.3139544 3.3139544 3.3139544) to (43.066347 43.066347 43.066347)
  create_atoms CPU = 0.000 seconds
create_atoms 2 single 16.225705004039717 15.112209958054763 5.625077486015711
Created 1 atoms
  using lattice units in orthogonal box = (3.3139544 3.3139544 3.3139544) to (43.066347 43.066347 43.066347)
  create_atoms CPU = 0.000 seconds
create_atoms 2 single 10.389316695307832 14.62231167140245 3.615951144776743
Created 1 atoms
  using lattice units in orthogonal box = (3.3139544 3.3139544 3.3139544) to (43.066347 43.066347 43.066347)
  create_atoms CPU = 0.000 seconds
create_atoms 2 single 16.283783556329126 13.944251138703493 8.494273489503101
Created 1 atoms
  using lattice units in orthogonal box = (3.3139544 3.3139544 3.3139544) to (43.066347 43.066347 43.066347)
  create_atoms CPU = 0.000 seconds
create_atoms 2 single 13.945669651044655 11.223263468688085 3.330545512765788
Created 1 atoms
  using lattice units in orthogonal box = (3.3139544 3.3139544 3.3139544) to (43.066347 43.066347 43.066347)
  create_atoms CPU = 0.000 seconds
create_atoms 2 single 16.6050502945429 16.50037349733605 7.719299945337159
Created 1 atoms
  using lattice units in orthogonal box = (3.3139544 3.3139544 3.3139544) to (43.066347 43.066347 43.066347)
  create_atoms CPU = 0.000 seconds
create_atoms 2 single 18.841967007495906 11.252627021382706 3.727098620699041
Created 1 atoms
  using lattice units in orthogonal box = (3.3139544 3.3139544 3.3139544) to (43.066347 43.066347 43.066347)
  create_atoms CPU = 0.000 seconds
create_atoms 2 single 17.043321721540103 11.46954986930855 8.370394112997397
Created 1 atoms
  using lattice units in orthogonal box = (3.3139544 3.3139544 3.3139544) to (43.066347 43.066347 43.066347)
  create_atoms CPU = 0.000 seconds
create_atoms 1 single 17.018785090501485 13.825017274709644 4.946662719031212
Created 1 atoms
  using lattice units in orthogonal box = (3.3139544 3.3139544 3.3139544) to (43.066347 43.066347 43.066347)
  create_atoms CPU = 0.000 seconds
create_atoms 2 single 22.54849389035687 13.969075610662113 6.557951004104426
Created 1 atoms
  using lattice units in orthogonal box = (3.3139544 3.3139544 3.3139544) to (43.066347 43.066347 43.066347)
  create_atoms CPU = 0.000 seconds
create_atoms 2 single 22.03975256643997 14.453463310834078 4.098403215186626
Created 1 atoms
  using lattice units in orthogonal box = (3.3139544 3.3139544 3.3139544) to (43.066347 43.066347 43.066347)
  create_atoms CPU = 0.000 seconds
create_atoms 1 single 20.152943009465687 12.543106499138082 9.306410872964491
Created 1 atoms
  using lattice units in orthogonal box = (3.3139544 3.3139544 3.3139544) to (43.066347 43.066347 43.066347)
  create_atoms CPU = 0.000 seconds
create_atoms 2 single 18.84394854791871 13.380025680114423 8.78282597414163
Created 1 atoms
  using lattice units in orthogonal box = (3.3139544 3.3139544 3.3139544) to (43.066347 43.066347 43.066347)
  create_atoms CPU = 0.000 seconds
create_atoms 2 single 20.04134519968149 11.083546406569491 8.566828424295833
Created 1 atoms
  using lattice units in orthogonal box = (3.3139544 3.3139544 3.3139544) to (43.066347 43.066347 43.066347)
  create_atoms CPU = 0.000 seconds
create_atoms 2 single 17.643246063311846 13.0428729370636 6.289811444785701
Created 1 atoms
  using lattice units in orthogonal box = (3.3139544 3.3139544 3.3139544) to (43.066347 43.066347 43.066347)
  create_atoms CPU = 0.000 seconds
create_atoms 1 single 17.496079305489413 12.983276846539237 7.92481034563242
Created 1 atoms
  using lattice units in orthogonal box = (3.3139544 3.3139544 3.3139544) to (43.066347 43.066347 43.066347)
  create_atoms CPU = 0.000 seconds
create_atoms 2 single 21.52785691020883 13.312774959550831 8.853666294826636
Created 1 atoms
  using lattice units in orthogonal box = (3.3139544 3.3139544 3.3139544) to (43.066347 43.066347 43.066347)
  create_atoms CPU = 0.000 seconds
create_atoms 2 single 20.131869228230155 14.877929045690436 6.015565217545536
Created 1 atoms
  using lattice units in orthogonal box = (3.3139544 3.3139544 3.3139544) to (43.066347 43.066347 43.066347)
  create_atoms CPU = 0.000 seconds
create_atoms 2 single 20.88939419963978 12.367978235569133 5.060018928864017
Created 1 atoms
  using lattice units in orthogonal box = (3.3139544 3.3139544 3.3139544) to (43.066347 43.066347 43.066347)
  create_atoms CPU = 0.000 seconds
create_atoms 1 single 21.323502499089145 13.89525466807376 5.460719274029186
Created 1 atoms
  using lattice units in orthogonal box = (3.3139544 3.3139544 3.3139544) to (43.066347 43.066347 43.066347)
  create_atoms CPU = 0.000 seconds
create_atoms 2 single 18.097719710017266 14.437048357089179 3.9820282818029504
Created 1 atoms
  using lattice units in orthogonal box = (3.3139544 3.3139544 3.3139544) to (43.066347 43.066347 43.066347)
  create_atoms CPU = 0.000 seconds
create_atoms 1 single 22.872197808121836 13.14794794228241 7.925887498813092
Created 1 atoms
  using lattice units in orthogonal box = (3.3139544 3.3139544 3.3139544) to (43.066347 43.066347 43.066347)
  create_atoms CPU = 0.000 seconds
create_atoms 1 single 20.366796210470724 11.843857329265 3.600786028734435
Created 1 atoms
  using lattice units in orthogonal box = (3.3139544 3.3139544 3.3139544) to (43.066347 43.066347 43.066347)
  create_atoms CPU = 0.000 seconds
create_atoms 1 single 19.813604788808522 16.449312369845106 5.6641200903925535
Created 1 atoms
  using lattice units in orthogonal box = (3.3139544 3.3139544 3.3139544) to (43.066347 43.066347 43.066347)
  create_atoms CPU = 0.000 seconds
create_atoms 1 single 23.12167028227719 10.163015932184877 8.404066876358614
Created 1 atoms
  using lattice units in orthogonal box = (3.3139544 3.3139544 3.3139544) to (43.066347 43.066347 43.066347)
  create_atoms CPU = 0.000 seconds
create_atoms 2 single 23.053846056146032 11.559178980775235 7.541288242555055
Created 1 atoms
  using lattice units in orthogonal box = (3.3139544 3.3139544 3.3139544) to (43.066347 43.066347 43.066347)
  create_atoms CPU = 0.000 seconds
create_atoms 2 single 27.844074804357813 10.205630195263202 4.279576851559369
Created 1 atoms
  using lattice units in orthogonal box = (3.3139544 3.3139544 3.3139544) to (43.066347 43.066347 43.066347)
  create_atoms CPU = 0.000 seconds
create_atoms 1 single 26.45141735929326 10.1981286202707 5.172571706423075
Created 1 atoms
  using lattice units in orthogonal box = (3.3139544 3.3139544 3.3139544) to (43.066347 43.066347 43.066347)
  create_atoms CPU = 0.000 seconds
create_atoms 2 single 24.1358607490085 13.753923245445549 8.780833018088721
Created 1 atoms
  using lattice units in orthogonal box = (3.3139544 3.3139544 3.3139544) to (43.066347 43.066347 43.066347)
  create_atoms CPU = 0.000 seconds
create_atoms 2 single 25.14298451119873 10.409442491172191 4.219745753102664
Created 1 atoms
  using lattice units in orthogonal box = (3.3139544 3.3139544 3.3139544) to (43.066347 43.066347 43.066347)
  create_atoms CPU = 0.000 seconds
create_atoms 2 single 26.840260837207083 11.22138250511144 6.381770485729137
Created 1 atoms
  using lattice units in orthogonal box = (3.3139544 3.3139544 3.3139544) to (43.066347 43.066347 43.066347)
  create_atoms CPU = 0.000 seconds
create_atoms 1 single 28.197446688833026 11.139775820557222 7.302315485176924
Created 1 atoms
  using lattice units in orthogonal box = (3.3139544 3.3139544 3.3139544) to (43.066347 43.066347 43.066347)
  create_atoms CPU = 0.000 seconds
create_atoms 1 single 26.115045686854245 14.88905982482449 5.009735959689195
Created 1 atoms
  using lattice units in orthogonal box = (3.3139544 3.3139544 3.3139544) to (43.066347 43.066347 43.066347)
  create_atoms CPU = 0.000 seconds
create_atoms 2 single 26.208199085874217 15.312373102101422 9.276829817837905
Created 1 atoms
  using lattice units in orthogonal box = (3.3139544 3.3139544 3.3139544) to (43.066347 43.066347 43.066347)
  create_atoms CPU = 0.000 seconds
create_atoms 2 single 26.18914416705801 14.859701728012132 6.645094803593676
Created 1 atoms
  using lattice units in orthogonal box = (3.3139544 3.3139544 3.3139544) to (43.066347 43.066347 43.066347)
  create_atoms CPU = 0.000 seconds
create_atoms 1 single 24.721731559929296 14.875852354601706 9.842556462615821
Created 1 atoms
  using lattice units in orthogonal box = (3.3139544 3.3139544 3.3139544) to (43.066347 43.066347 43.066347)
  create_atoms CPU = 0.000 seconds
create_atoms 2 single 24.64440179074721 14.521853100332782 4.405395378883754
Created 1 atoms
  using lattice units in orthogonal box = (3.3139544 3.3139544 3.3139544) to (43.066347 43.066347 43.066347)
  create_atoms CPU = 0.000 seconds
create_atoms 2 single 28.449366549624557 12.525140702678996 8.09484586883081
Created 1 atoms
  using lattice units in orthogonal box = (3.3139544 3.3139544 3.3139544) to (43.066347 43.066347 43.066347)
  create_atoms CPU = 0.000 seconds
create_atoms 1 single 26.707068577470764 15.857220805468057 7.826859737378863
Created 1 atoms
  using lattice units in orthogonal box = (3.3139544 3.3139544 3.3139544) to (43.066347 43.066347 43.066347)
  create_atoms CPU = 0.000 seconds
create_atoms 1 single 28.769230559438068 12.873377613575515 9.656923457357031
Created 1 atoms
  using lattice units in orthogonal box = (3.3139544 3.3139544 3.3139544) to (43.066347 43.066347 43.066347)
  create_atoms CPU = 0.000 seconds
create_atoms 2 single 27.14380013301798 13.707971228477726 4.46581577569707
Created 1 atoms
  using lattice units in orthogonal box = (3.3139544 3.3139544 3.3139544) to (43.066347 43.066347 43.066347)
  create_atoms CPU = 0.000 seconds
create_atoms 1 single 29.40862374387436 10.697282404492615 4.582404029096025
Created 1 atoms
  using lattice units in orthogonal box = (3.3139544 3.3139544 3.3139544) to (43.066347 43.066347 43.066347)
  create_atoms CPU = 0.000 seconds
create_atoms 1 single 29.345850918979924 15.830244966559246 9.221836708526782
Created 1 atoms
  using lattice units in orthogonal box = (3.3139544 3.3139544 3.3139544) to (43.066347 43.066347 43.066347)
  create_atoms CPU = 0.000 seconds
create_atoms 2 single 29.410293472869306 10.822572425357581 6.2280792796408315
Created 1 atoms
  using lattice units in orthogonal box = (3.3139544 3.3139544 3.3139544) to (43.066347 43.066347 43.066347)
  create_atoms CPU = 0.000 seconds
create_atoms 2 single 29.414672311199773 12.22178369344723 3.9582556569987237
Created 1 atoms
  using lattice units in orthogonal box = (3.3139544 3.3139544 3.3139544) to (43.066347 43.066347 43.066347)
  create_atoms CPU = 0.000 seconds
create_atoms 2 single 28.33871270977683 15.935909571936921 7.91855799354915
Created 1 atoms
  using lattice units in orthogonal box = (3.3139544 3.3139544 3.3139544) to (43.066347 43.066347 43.066347)
  create_atoms CPU = 0.000 seconds
create_atoms 2 single 26.30306406006653 16.51502122385159 4.613653049307568
Created 1 atoms
  using lattice units in orthogonal box = (3.3139544 3.3139544 3.3139544) to (43.066347 43.066347 43.066347)
  create_atoms CPU = 0.000 seconds
create_atoms 2 single 29.625705442242637 14.265151474520305 9.661359598942054
Created 1 atoms
  using lattice units in orthogonal box = (3.3139544 3.3139544 3.3139544) to (43.066347 43.066347 43.066347)
  create_atoms CPU = 0.000 seconds
create_atoms 1 single 23.349148648570655 15.366010748068053 3.8957149053994122
Created 1 atoms
  using lattice units in orthogonal box = (3.3139544 3.3139544 3.3139544) to (43.066347 43.066347 43.066347)
  create_atoms CPU = 0.000 seconds
create_atoms 1 single 28.367837598418195 13.377298738471083 3.419580555796579
Created 1 atoms
  using lattice units in orthogonal box = (3.3139544 3.3139544 3.3139544) to (43.066347 43.066347 43.066347)
  create_atoms CPU = 0.000 seconds
create_atoms 2 single 29.22029723922438 14.785195524579517 3.3561031915246917
Created 1 atoms
  using lattice units in orthogonal box = (3.3139544 3.3139544 3.3139544) to (43.066347 43.066347 43.066347)
  create_atoms CPU = 0.000 seconds
create_atoms 1 single 34.594014694597035 10.142019938525697 5.817180512665315
Created 1 atoms
  using lattice units in orthogonal box = (3.3139544 3.3139544 3.3139544) to (43.066347 43.066347 43.066347)
  create_atoms CPU = 0.000 seconds
create_atoms 2 single 33.27110811810683 10.402208980727606 4.864654825992011
Created 1 atoms
  using lattice units in orthogonal box = (3.3139544 3.3139544 3.3139544) to (43.066347 43.066347 43.066347)
  create_atoms CPU = 0.000 seconds
create_atoms 2 single 35.73389728018906 15.566559423510663 3.7092207827235546
Created 1 atoms
  using lattice units in orthogonal box = (3.3139544 3.3139544 3.3139544) to (43.066347 43.066347 43.066347)
  create_atoms CPU = 0.000 seconds
create_atoms 2 single 34.96816005863216 13.04635262997417 3.816232792020186
Created 1 atoms
  using lattice units in orthogonal box = (3.3139544 3.3139544 3.3139544) to (43.066347 43.066347 43.066347)
  create_atoms CPU = 0.000 seconds
create_atoms 2 single 34.50501146478594 13.545049431482665 8.488269280335953
Created 1 atoms
  using lattice units in orthogonal box = (3.3139544 3.3139544 3.3139544) to (43.066347 43.066347 43.066347)
  create_atoms CPU = 0.000 seconds
create_atoms 2 single 34.8369259179828 11.503425780026575 6.67662079644487
Created 1 atoms
  using lattice units in orthogonal box = (3.3139544 3.3139544 3.3139544) to (43.066347 43.066347 43.066347)
  create_atoms CPU = 0.000 seconds
create_atoms 1 single 33.80343812052324 12.337414866014008 7.622241080603009
Created 1 atoms
  using lattice units in orthogonal box = (3.3139544 3.3139544 3.3139544) to (43.066347 43.066347 43.066347)
  create_atoms CPU = 0.000 seconds
create_atoms 2 single 31.35388786002058 15.168636617763351 6.588140565737413
Created 1 atoms
  using lattice units in orthogonal box = (3.3139544 3.3139544 3.3139544) to (43.066347 43.066347 43.066347)
  create_atoms CPU = 0.000 seconds
create_atoms 1 single 32.314663366012354 14.156665603557267 5.709463854320988
Created 1 atoms
  using lattice units in orthogonal box = (3.3139544 3.3139544 3.3139544) to (43.066347 43.066347 43.066347)
  create_atoms CPU = 0.000 seconds
create_atoms 1 single 35.20343636025769 14.394111707475197 4.721625773733188
Created 1 atoms
  using lattice units in orthogonal box = (3.3139544 3.3139544 3.3139544) to (43.066347 43.066347 43.066347)
  create_atoms CPU = 0.000 seconds
create_atoms 2 single 33.78131340512617 14.834034384022285 5.412629596695488
Created 1 atoms
  using lattice units in orthogonal box = (3.3139544 3.3139544 3.3139544) to (43.066347 43.066347 43.066347)
  create_atoms CPU = 0.000 seconds
create_atoms 2 single 32.58609065204289 12.856216098312586 6.660444401903935
Created 1 atoms
  using lattice units in orthogonal box = (3.3139544 3.3139544 3.3139544) to (43.066347 43.066347 43.066347)
  create_atoms CPU = 0.000 seconds
create_atoms 2 single 33.27371773483749 11.245033552077281 8.728425618985396
Created 1 atoms
  using lattice units in orthogonal box = (3.3139544 3.3139544 3.3139544) to (43.066347 43.066347 43.066347)
  create_atoms CPU = 0.000 seconds
create_atoms 2 single 31.624644472863526 13.98038237863944 4.2360612808284035
Created 1 atoms
  using lattice units in orthogonal box = (3.3139544 3.3139544 3.3139544) to (43.066347 43.066347 43.066347)
  create_atoms CPU = 0.000 seconds
create_atoms 2 single 36.30331785556143 14.029309273936278 5.879428554863455
Created 1 atoms
  using lattice units in orthogonal box = (3.3139544 3.3139544 3.3139544) to (43.066347 43.066347 43.066347)
  create_atoms CPU = 0.000 seconds
create_atoms 2 single 31.365191286396268 16.51441951030705 3.9933236235396197
Created 1 atoms
  using lattice units in orthogonal box = (3.3139544 3.3139544 3.3139544) to (43.066347 43.066347 43.066347)
  create_atoms CPU = 0.000 seconds
create_atoms 2 single 35.66928518785724 16.560316080615014 8.82699578162854
Created 1 atoms
  using lattice units in orthogonal box = (3.3139544 3.3139544 3.3139544) to (43.066347 43.066347 43.066347)
  create_atoms CPU = 0.000 seconds
create_atoms 2 single 30.75019337991442 16.55191725842084 8.801471393981064
Created 1 atoms
  using lattice units in orthogonal box = (3.3139544 3.3139544 3.3139544) to (43.066347 43.066347 43.066347)
  create_atoms CPU = 0.000 seconds
create_atoms 1 single 30.824826731605604 15.0917449957587 3.327226786789651
Created 1 atoms
  using lattice units in orthogonal box = (3.3139544 3.3139544 3.3139544) to (43.066347 43.066347 43.066347)
  create_atoms CPU = 0.000 seconds
create_atoms 2 single 42.92923845911866 11.055642501431045 6.664388822990503
Created 1 atoms
  using lattice units in orthogonal box = (3.3139544 3.3139544 3.3139544) to (43.066347 43.066347 43.066347)
  create_atoms CPU = 0.000 seconds
create_atoms 2 single 42.84800543979076 13.327551497371797 5.387214817327907
Created 1 atoms
  using lattice units in orthogonal box = (3.3139544 3.3139544 3.3139544) to (43.066347 43.066347 43.066347)
  create_atoms CPU = 0.000 seconds
create_atoms 2 single 36.597311289991595 10.472406217609391 8.789270959067057
Created 1 atoms
  using lattice units in orthogonal box = (3.3139544 3.3139544 3.3139544) to (43.066347 43.066347 43.066347)
  create_atoms CPU = 0.000 seconds
create_atoms 2 single 42.67751105520976 15.811336261485677 4.733137983737143
Created 1 atoms
  using lattice units in orthogonal box = (3.3139544 3.3139544 3.3139544) to (43.066347 43.066347 43.066347)
  create_atoms CPU = 0.000 seconds
create_atoms 1 single 36.922669478749626 10.263941995212774 3.779082511426438
Created 1 atoms
  using lattice units in orthogonal box = (3.3139544 3.3139544 3.3139544) to (43.066347 43.066347 43.066347)
  create_atoms CPU = 0.000 seconds
create_atoms 2 single 38.31043595800765 10.945229506918544 6.685516846147612
Created 1 atoms
  using lattice units in orthogonal box = (3.3139544 3.3139544 3.3139544) to (43.066347 43.066347 43.066347)
  create_atoms CPU = 0.000 seconds
create_atoms 1 single 38.15059948425514 10.799485570455808 8.316856575050107
Created 1 atoms
  using lattice units in orthogonal box = (3.3139544 3.3139544 3.3139544) to (43.066347 43.066347 43.066347)
  create_atoms CPU = 0.000 seconds
create_atoms 2 single 37.82120690227938 14.577117500342045 8.02323941622835
Created 1 atoms
  using lattice units in orthogonal box = (3.3139544 3.3139544 3.3139544) to (43.066347 43.066347 43.066347)
  create_atoms CPU = 0.000 seconds
create_atoms 1 single 37.773540980898744 14.562215370101487 6.371560930592575
Created 1 atoms
  using lattice units in orthogonal box = (3.3139544 3.3139544 3.3139544) to (43.066347 43.066347 43.066347)
  create_atoms CPU = 0.000 seconds
create_atoms 1 single 38.9777454710464 11.847750642983248 5.47162419863011
Created 1 atoms
  using lattice units in orthogonal box = (3.3139544 3.3139544 3.3139544) to (43.066347 43.066347 43.066347)
  create_atoms CPU = 0.000 seconds
create_atoms 2 single 38.86818675052259 13.451359065148619 5.839075083627531
Created 1 atoms
  using lattice units in orthogonal box = (3.3139544 3.3139544 3.3139544) to (43.066347 43.066347 43.066347)
  create_atoms CPU = 0.000 seconds
create_atoms 1 single 38.072294897695905 13.662521362153772 9.367455822775591
Created 1 atoms
  using lattice units in orthogonal box = (3.3139544 3.3139544 3.3139544) to (43.066347 43.066347 43.066347)
  create_atoms CPU = 0.000 seconds
create_atoms 2 single 38.722755386878895 12.216907515220079 8.919995506418115
Created 1 atoms
  using lattice units in orthogonal box = (3.3139544 3.3139544 3.3139544) to (43.066347 43.066347 43.066347)
  create_atoms CPU = 0.000 seconds
create_atoms 2 single 40.61085161783776 11.529393383270856 5.291302965407231
Created 1 atoms
  using lattice units in orthogonal box = (3.3139544 3.3139544 3.3139544) to (43.066347 43.066347 43.066347)
  create_atoms CPU = 0.000 seconds
create_atoms 1 single 42.262145080083535 11.790382453157411 5.342425374459266
Created 1 atoms
  using lattice units in orthogonal box = (3.3139544 3.3139544 3.3139544) to (43.066347 43.066347 43.066347)
  create_atoms CPU = 0.000 seconds
create_atoms 2 single 41.63738724055733 14.829740478605089 9.369190328243949
Created 1 atoms
  using lattice units in orthogonal box = (3.3139544 3.3139544 3.3139544) to (43.066347 43.066347 43.066347)
  create_atoms CPU = 0.000 seconds
create_atoms 2 single 38.032340409929574 11.427301413951676 4.171754537962705
Created 1 atoms
  using lattice units in orthogonal box = (3.3139544 3.3139544 3.3139544) to (43.066347 43.066347 43.066347)
  create_atoms CPU = 0.000 seconds
create_atoms 2 single 37.94884015179165 16.07887898799395 5.75900522205283
Created 1 atoms
  using lattice units in orthogonal box = (3.3139544 3.3139544 3.3139544) to (43.066347 43.066347 43.066347)
  create_atoms CPU = 0.000 seconds
create_atoms 2 single 42.88679672823156 11.267613048201241 3.9003549746681623
Created 1 atoms
  using lattice units in orthogonal box = (3.3139544 3.3139544 3.3139544) to (43.066347 43.066347 43.066347)
  create_atoms CPU = 0.000 seconds
create_atoms 2 single 7.601776337598828 16.648452822743057 6.197242908706904
Created 1 atoms
  using lattice units in orthogonal box = (3.3139544 3.3139544 3.3139544) to (43.066347 43.066347 43.066347)
  create_atoms CPU = 0.000 seconds
create_atoms 2 single 8.009086537995412 17.252818509260482 8.763742891520092
Created 1 atoms
  using lattice units in orthogonal box = (3.3139544 3.3139544 3.3139544) to (43.066347 43.066347 43.066347)
  create_atoms CPU = 0.000 seconds
create_atoms 2 single 5.953464729393609 17.337537256347996 4.350004371091278
Created 1 atoms
  using lattice units in orthogonal box = (3.3139544 3.3139544 3.3139544) to (43.066347 43.066347 43.066347)
  create_atoms CPU = 0.000 seconds
create_atoms 1 single 4.176382391181791 21.267811523119693 7.049289192415255
Created 1 atoms
  using lattice units in orthogonal box = (3.3139544 3.3139544 3.3139544) to (43.066347 43.066347 43.066347)
  create_atoms CPU = 0.000 seconds
create_atoms 2 single 6.4678011974702585 20.711080647695876 4.2773870162965135
Created 1 atoms
  using lattice units in orthogonal box = (3.3139544 3.3139544 3.3139544) to (43.066347 43.066347 43.066347)
  create_atoms CPU = 0.000 seconds
create_atoms 1 single 4.295312896737756 19.30585016789073 9.555985486327536
Created 1 atoms
  using lattice units in orthogonal box = (3.3139544 3.3139544 3.3139544) to (43.066347 43.066347 43.066347)
  create_atoms CPU = 0.000 seconds
create_atoms 2 single 5.155290516577061 17.942283273203195 9.248424275959684
Created 1 atoms
  using lattice units in orthogonal box = (3.3139544 3.3139544 3.3139544) to (43.066347 43.066347 43.066347)
  create_atoms CPU = 0.000 seconds
create_atoms 1 single 7.105529783399033 17.93071698983978 5.32790945532793
Created 1 atoms
  using lattice units in orthogonal box = (3.3139544 3.3139544 3.3139544) to (43.066347 43.066347 43.066347)
  create_atoms CPU = 0.000 seconds
create_atoms 2 single 6.7433569118786805 19.181598405045687 6.296260910315016
Created 1 atoms
  using lattice units in orthogonal box = (3.3139544 3.3139544 3.3139544) to (43.066347 43.066347 43.066347)
  create_atoms CPU = 0.000 seconds
create_atoms 2 single 5.730600217499296 21.647751067481718 6.6340414149628515
Created 1 atoms
  using lattice units in orthogonal box = (3.3139544 3.3139544 3.3139544) to (43.066347 43.066347 43.066347)
  create_atoms CPU = 0.000 seconds
create_atoms 2 single 8.481433974068098 21.13071500419919 6.162521395424616
Created 1 atoms
  using lattice units in orthogonal box = (3.3139544 3.3139544 3.3139544) to (43.066347 43.066347 43.066347)
  create_atoms CPU = 0.000 seconds
create_atoms 1 single 6.886969824179481 20.77197450361721 5.880486307643391
Created 1 atoms
  using lattice units in orthogonal box = (3.3139544 3.3139544 3.3139544) to (43.066347 43.066347 43.066347)
  create_atoms CPU = 0.000 seconds
create_atoms 2 single 8.309781860022829 18.487038532461693 4.321174757028429
Created 1 atoms
  using lattice units in orthogonal box = (3.3139544 3.3139544 3.3139544) to (43.066347 43.066347 43.066347)
  create_atoms CPU = 0.000 seconds
create_atoms 2 single 4.244033645777539 20.60085555146895 8.549137300481943
Created 1 atoms
  using lattice units in orthogonal box = (3.3139544 3.3139544 3.3139544) to (43.066347 43.066347 43.066347)
  create_atoms CPU = 0.000 seconds
create_atoms 2 single 4.3216543996152055 22.211401646612273 4.094299550227122
Created 1 atoms
  using lattice units in orthogonal box = (3.3139544 3.3139544 3.3139544) to (43.066347 43.066347 43.066347)
  create_atoms CPU = 0.000 seconds
create_atoms 2 single 3.7575360271784866 19.99406706477537 6.076240070819993
Created 1 atoms
  using lattice units in orthogonal box = (3.3139544 3.3139544 3.3139544) to (43.066347 43.066347 43.066347)
  create_atoms CPU = 0.000 seconds
create_atoms 2 single 3.8808168407080856 19.876288394830617 3.5059189148748255
Created 1 atoms
  using lattice units in orthogonal box = (3.3139544 3.3139544 3.3139544) to (43.066347 43.066347 43.066347)
  create_atoms CPU = 0.000 seconds
create_atoms 1 single 9.797987054096064 18.785738035749965 3.661577795963596
Created 1 atoms
  using lattice units in orthogonal box = (3.3139544 3.3139544 3.3139544) to (43.066347 43.066347 43.066347)
  create_atoms CPU = 0.000 seconds
create_atoms 2 single 9.61146175349406 19.449725604878168 8.771188003415586
Created 1 atoms
  using lattice units in orthogonal box = (3.3139544 3.3139544 3.3139544) to (43.066347 43.066347 43.066347)
  create_atoms CPU = 0.000 seconds
create_atoms 2 single 9.930593332535931 17.461649700273593 7.010908429768171
Created 1 atoms
  using lattice units in orthogonal box = (3.3139544 3.3139544 3.3139544) to (43.066347 43.066347 43.066347)
  create_atoms CPU = 0.000 seconds
create_atoms 1 single 5.1312254978841505 20.971499478907525 3.35230100459468
Created 1 atoms
  using lattice units in orthogonal box = (3.3139544 3.3139544 3.3139544) to (43.066347 43.066347 43.066347)
  create_atoms CPU = 0.000 seconds
create_atoms 2 single 10.171988406736347 20.280916745868527 4.222114004679463
Created 1 atoms
  using lattice units in orthogonal box = (3.3139544 3.3139544 3.3139544) to (43.066347 43.066347 43.066347)
  create_atoms CPU = 0.000 seconds
create_atoms 2 single 12.444334241170335 23.03683691634925 8.6186990849269
Created 1 atoms
  using lattice units in orthogonal box = (3.3139544 3.3139544 3.3139544) to (43.066347 43.066347 43.066347)
  create_atoms CPU = 0.000 seconds
create_atoms 1 single 10.073547926970841 20.986589202200815 5.702569019396429
Created 1 atoms
  using lattice units in orthogonal box = (3.3139544 3.3139544 3.3139544) to (43.066347 43.066347 43.066347)
  create_atoms CPU = 0.000 seconds
create_atoms 1 single 15.66528480722199 22.76414714717384 6.9097991973468265
Created 1 atoms
  using lattice units in orthogonal box = (3.3139544 3.3139544 3.3139544) to (43.066347 43.066347 43.066347)
  create_atoms CPU = 0.000 seconds
create_atoms 2 single 10.821765464099363 17.590767678822264 4.138824649204505
Created 1 atoms
  using lattice units in orthogonal box = (3.3139544 3.3139544 3.3139544) to (43.066347 43.066347 43.066347)
  create_atoms CPU = 0.000 seconds
create_atoms 1 single 15.86141800936997 21.076630706153342 4.48652004017432
Created 1 atoms
  using lattice units in orthogonal box = (3.3139544 3.3139544 3.3139544) to (43.066347 43.066347 43.066347)
  create_atoms CPU = 0.000 seconds
create_atoms 1 single 12.293025735282695 17.0734011575879 4.669044499455115
Created 1 atoms
  using lattice units in orthogonal box = (3.3139544 3.3139544 3.3139544) to (43.066347 43.066347 43.066347)
  create_atoms CPU = 0.000 seconds
create_atoms 2 single 10.947049456432191 19.966278735672628 6.662184132634681
Created 1 atoms
  using lattice units in orthogonal box = (3.3139544 3.3139544 3.3139544) to (43.066347 43.066347 43.066347)
  create_atoms CPU = 0.000 seconds
create_atoms 2 single 10.696853493383625 22.50478877690296 5.731848761799001
Created 1 atoms
  using lattice units in orthogonal box = (3.3139544 3.3139544 3.3139544) to (43.066347 43.066347 43.066347)
  create_atoms CPU = 0.000 seconds
create_atoms 2 single 12.938711349400863 20.42459861775076 9.135953017693726
Created 1 atoms
  using lattice units in orthogonal box = (3.3139544 3.3139544 3.3139544) to (43.066347 43.066347 43.066347)
  create_atoms CPU = 0.000 seconds
create_atoms 1 single 10.673611206758387 18.744448555696447 7.724969361639165
Created 1 atoms
  using lattice units in orthogonal box = (3.3139544 3.3139544 3.3139544) to (43.066347 43.066347 43.066347)
  create_atoms CPU = 0.000 seconds
create_atoms 2 single 14.497487637912167 18.777613255757647 7.692914194333966
Created 1 atoms
  using lattice units in orthogonal box = (3.3139544 3.3139544 3.3139544) to (43.066347 43.066347 43.066347)
  create_atoms CPU = 0.000 seconds
create_atoms 2 single 12.964189424698368 18.156881056454548 5.6898337285946745
Created 1 atoms
  using lattice units in orthogonal box = (3.3139544 3.3139544 3.3139544) to (43.066347 43.066347 43.066347)
  create_atoms CPU = 0.000 seconds
create_atoms 2 single 14.733222960804097 21.690072452981784 7.704396658350615
Created 1 atoms
  using lattice units in orthogonal box = (3.3139544 3.3139544 3.3139544) to (43.066347 43.066347 43.066347)
  create_atoms CPU = 0.000 seconds
create_atoms 1 single 13.602844789956361 21.88809452289859 8.842751367680062
Created 1 atoms
  using lattice units in orthogonal box = (3.3139544 3.3139544 3.3139544) to (43.066347 43.066347 43.066347)
  create_atoms CPU = 0.000 seconds
create_atoms 2 single 14.711761970520866 20.154350535967552 5.231453038051512
Created 1 atoms
  using lattice units in orthogonal box = (3.3139544 3.3139544 3.3139544) to (43.066347 43.066347 43.066347)
  create_atoms CPU = 0.000 seconds
create_atoms 2 single 15.649820644190644 17.726781876445596 5.5136225375026084
Created 1 atoms
  using lattice units in orthogonal box = (3.3139544 3.3139544 3.3139544) to (43.066347 43.066347 43.066347)
  create_atoms CPU = 0.000 seconds
create_atoms 2 single 11.98542329795512 18.15306339733679 8.498661490412534
Created 1 atoms
  using lattice units in orthogonal box = (3.3139544 3.3139544 3.3139544) to (43.066347 43.066347 43.066347)
  create_atoms CPU = 0.000 seconds
create_atoms 1 single 13.403023395011344 18.856955526739306 8.919723910031951
Created 1 atoms
  using lattice units in orthogonal box = (3.3139544 3.3139544 3.3139544) to (43.066347 43.066347 43.066347)
  create_atoms CPU = 0.000 seconds
create_atoms 1 single 14.464211463295506 18.73293680412596 6.038854453498511
Created 1 atoms
  using lattice units in orthogonal box = (3.3139544 3.3139544 3.3139544) to (43.066347 43.066347 43.066347)
  create_atoms CPU = 0.000 seconds
create_atoms 2 single 16.46112742761981 22.069657109976312 5.653549920823537
Created 1 atoms
  using lattice units in orthogonal box = (3.3139544 3.3139544 3.3139544) to (43.066347 43.066347 43.066347)
  create_atoms CPU = 0.000 seconds
create_atoms 2 single 13.327464462848793 16.895371133170247 3.4021151264443414
Created 1 atoms
  using lattice units in orthogonal box = (3.3139544 3.3139544 3.3139544) to (43.066347 43.066347 43.066347)
  create_atoms CPU = 0.000 seconds
create_atoms 2 single 15.1916182175411 22.116730595599787 3.3983941831544318
Created 1 atoms
  using lattice units in orthogonal box = (3.3139544 3.3139544 3.3139544) to (43.066347 43.066347 43.066347)
  create_atoms CPU = 0.000 seconds
create_atoms 2 single 20.64515409581231 20.015373048873883 7.243119878205588
Created 1 atoms
  using lattice units in orthogonal box = (3.3139544 3.3139544 3.3139544) to (43.066347 43.066347 43.066347)
  create_atoms CPU = 0.000 seconds
create_atoms 2 single 19.33360674814795 20.692770780802103 5.012895306363943
Created 1 atoms
  using lattice units in orthogonal box = (3.3139544 3.3139544 3.3139544) to (43.066347 43.066347 43.066347)
  create_atoms CPU = 0.000 seconds
create_atoms 1 single 18.6839125806373 20.23545857185535 3.5417005187565085
Created 1 atoms
  using lattice units in orthogonal box = (3.3139544 3.3139544 3.3139544) to (43.066347 43.066347 43.066347)
  create_atoms CPU = 0.000 seconds
create_atoms 2 single 20.67009721439627 22.586141423172357 6.31359276158057
Created 1 atoms
  using lattice units in orthogonal box = (3.3139544 3.3139544 3.3139544) to (43.066347 43.066347 43.066347)
  create_atoms CPU = 0.000 seconds
create_atoms 1 single 16.701945233382055 16.60754618561838 6.077947553797378
Created 1 atoms
  using lattice units in orthogonal box = (3.3139544 3.3139544 3.3139544) to (43.066347 43.066347 43.066347)
  create_atoms CPU = 0.000 seconds
create_atoms 1 single 22.99473200664613 18.29961628201537 4.120551987392901
Created 1 atoms
  using lattice units in orthogonal box = (3.3139544 3.3139544 3.3139544) to (43.066347 43.066347 43.066347)
  create_atoms CPU = 0.000 seconds
create_atoms 1 single 19.787540853921563 21.225381252738604 6.543432974520243
Created 1 atoms
  using lattice units in orthogonal box = (3.3139544 3.3139544 3.3139544) to (43.066347 43.066347 43.066347)
  create_atoms CPU = 0.000 seconds
create_atoms 2 single 18.573743943087713 21.614147953060105 7.594664741474142
Created 1 atoms
  using lattice units in orthogonal box = (3.3139544 3.3139544 3.3139544) to (43.066347 43.066347 43.066347)
  create_atoms CPU = 0.000 seconds
create_atoms 1 single 18.048191774740587 22.743108004947302 8.68684060143235
Created 1 atoms
  using lattice units in orthogonal box = (3.3139544 3.3139544 3.3139544) to (43.066347 43.066347 43.066347)
  create_atoms CPU = 0.000 seconds
create_atoms 1 single 21.58210972067551 18.779992826425914 6.722382736796693
Created 1 atoms
  using lattice units in orthogonal box = (3.3139544 3.3139544 3.3139544) to (43.066347 43.066347 43.066347)
  create_atoms CPU = 0.000 seconds
create_atoms 2 single 18.255132734863764 16.96657429130876 5.682911802646899
Created 1 atoms
  using lattice units in orthogonal box = (3.3139544 3.3139544 3.3139544) to (43.066347 43.066347 43.066347)
  create_atoms CPU = 0.000 seconds
create_atoms 2 single 17.04679201594595 20.222381141071203 3.7551811641227335
Created 1 atoms
  using lattice units in orthogonal box = (3.3139544 3.3139544 3.3139544) to (43.066347 43.066347 43.066347)
  create_atoms CPU = 0.000 seconds
create_atoms 2 single 22.9543413730955 18.679157379325602 7.605131250156229
Created 1 atoms
  using lattice units in orthogonal box = (3.3139544 3.3139544 3.3139544) to (43.066347 43.066347 43.066347)
  create_atoms CPU = 0.000 seconds
create_atoms 2 single 20.69092975271322 17.405116242115714 6.706007745681546
Created 1 atoms
  using lattice units in orthogonal box = (3.3139544 3.3139544 3.3139544) to (43.066347 43.066347 43.066347)
  create_atoms CPU = 0.000 seconds
create_atoms 2 single 20.476444880324472 16.726052441840505 4.19179129840045
Created 1 atoms
  using lattice units in orthogonal box = (3.3139544 3.3139544 3.3139544) to (43.066347 43.066347 43.066347)
  create_atoms CPU = 0.000 seconds
create_atoms 2 single 22.149628075756176 19.16163730659152 5.233906844240802
Created 1 atoms
  using lattice units in orthogonal box = (3.3139544 3.3139544 3.3139544) to (43.066347 43.066347 43.066347)
  create_atoms CPU = 0.000 seconds
create_atoms 2 single 23.06867392089408 21.213590959663268 8.66384684104311
Created 1 atoms
  using lattice units in orthogonal box = (3.3139544 3.3139544 3.3139544) to (43.066347 43.066347 43.066347)
  create_atoms CPU = 0.000 seconds
create_atoms 1 single 23.24579902687127 22.770381136644005 9.18481230134843
Created 1 atoms
  using lattice units in orthogonal box = (3.3139544 3.3139544 3.3139544) to (43.066347 43.066347 43.066347)
  create_atoms CPU = 0.000 seconds
create_atoms 2 single 28.922921341026118 22.893474249798665 8.100328442198848
Created 1 atoms
  using lattice units in orthogonal box = (3.3139544 3.3139544 3.3139544) to (43.066347 43.066347 43.066347)
  create_atoms CPU = 0.000 seconds
create_atoms 2 single 24.55333364467162 18.71042441344061 3.886569372539434
Created 1 atoms
  using lattice units in orthogonal box = (3.3139544 3.3139544 3.3139544) to (43.066347 43.066347 43.066347)
  create_atoms CPU = 0.000 seconds
create_atoms 2 single 26.001400645930516 17.320764386974684 7.588413770315248
Created 1 atoms
  using lattice units in orthogonal box = (3.3139544 3.3139544 3.3139544) to (43.066347 43.066347 43.066347)
  create_atoms CPU = 0.000 seconds
create_atoms 2 single 29.0207035698679 22.6420140225647 4.44358134401206
Created 1 atoms
  using lattice units in orthogonal box = (3.3139544 3.3139544 3.3139544) to (43.066347 43.066347 43.066347)
  create_atoms CPU = 0.000 seconds
create_atoms 1 single 26.051605342137776 18.156380761436484 4.320293051228189
Created 1 atoms
  using lattice units in orthogonal box = (3.3139544 3.3139544 3.3139544) to (43.066347 43.066347 43.066347)
  create_atoms CPU = 0.000 seconds
create_atoms 2 single 25.298962329176288 19.833834337990137 8.054049825802586
Created 1 atoms
  using lattice units in orthogonal box = (3.3139544 3.3139544 3.3139544) to (43.066347 43.066347 43.066347)
  create_atoms CPU = 0.000 seconds
create_atoms 2 single 26.472638550130974 19.016064698136507 5.666457569715033
Created 1 atoms
  using lattice units in orthogonal box = (3.3139544 3.3139544 3.3139544) to (43.066347 43.066347 43.066347)
  create_atoms CPU = 0.000 seconds
create_atoms 1 single 26.423590434605487 18.879146289753532 7.3000009704396565
Created 1 atoms
  using lattice units in orthogonal box = (3.3139544 3.3139544 3.3139544) to (43.066347 43.066347 43.066347)
  create_atoms CPU = 0.000 seconds
create_atoms 2 single 27.870366087327294 19.1966643422244 8.004638183391531
Created 1 atoms
  using lattice units in orthogonal box = (3.3139544 3.3139544 3.3139544) to (43.066347 43.066347 43.066347)
  create_atoms CPU = 0.000 seconds
create_atoms 1 single 28.184631947863043 19.543186551149855 9.570941612415552
Created 1 atoms
  using lattice units in orthogonal box = (3.3139544 3.3139544 3.3139544) to (43.066347 43.066347 43.066347)
  create_atoms CPU = 0.000 seconds
create_atoms 2 single 27.91529149716101 21.129828752905674 9.908509166189049
Created 1 atoms
  using lattice units in orthogonal box = (3.3139544 3.3139544 3.3139544) to (43.066347 43.066347 43.066347)
  create_atoms CPU = 0.000 seconds
create_atoms 1 single 23.75040530638722 19.707388821913245 8.600504237940159
Created 1 atoms
  using lattice units in orthogonal box = (3.3139544 3.3139544 3.3139544) to (43.066347 43.066347 43.066347)
  create_atoms CPU = 0.000 seconds
create_atoms 1 single 28.150273881903935 22.702414637056133 9.532274096234477
Created 1 atoms
  using lattice units in orthogonal box = (3.3139544 3.3139544 3.3139544) to (43.066347 43.066347 43.066347)
  create_atoms CPU = 0.000 seconds
create_atoms 2 single 29.428845777931038 18.2106252966083 4.236817126600965
Created 1 atoms
  using lattice units in orthogonal box = (3.3139544 3.3139544 3.3139544) to (43.066347 43.066347 43.066347)
  create_atoms CPU = 0.000 seconds
create_atoms 2 single 23.203734554766143 16.773363543093698 4.724183161232995
Created 1 atoms
  using lattice units in orthogonal box = (3.3139544 3.3139544 3.3139544) to (43.066347 43.066347 43.066347)
  create_atoms CPU = 0.000 seconds
[...]
info system
info system
info system
info system
info system
info system
info system
info system
info system
info system
info system
info system
info system
info system
info system
info system
info system
info system
info system
info system
info system
info system
info system
info system
info system
info system
info system
info system
info system
info system
info system
info system
info system
info system
info system
info system
info system
info system
info system
info system
info system
info system
info system
info system
info system
info system
info system
info system
info system
info system
info system
info system
info system
info system
info system
info system
info system
info system
info system
info system
info system
info system
info system
info system
info system
info system
info system
info system
info system
info system
info system
info system
info system
info system
info system
info system
info system
info system
info system
info system
info system
info system
info system
info system
info system
info system
info system
info system
info system
info system
info system
info system
info system
info system
info system
info system
info system
info system
info system
info system
info system
info system
info system
info system
info system
info system
info system
info system
info system
info system
info system
info system
info system
info system
info system
info system
info system
info system
info system
info system
info system
info system
info system
info system
info system
info system
info system
info system
info system
info system
info system
info system
info system
info system
info system
info system
info system
info system
info system
info system
info system
info system
info system
info system
info system
info system
info system
info system
info system
info system
info system
info system
info system
info system
info system
info system
info system
info system
info system
info system
info system
info system
info system
info system
info system
info system
info system
info system
info system
info system
info system
info system
info system
info system
info system
info system
info system
info system
info system
info system
info system
info system
info system
info system
info system
info system
info system
info system
info system
info system
info system
info system
info system
info system
info system
info system
info system
info system
info system
info system
info system
info system
info system
info system
info system
info system
info system
info system
info system
info system
info system
info system
info system
info system
info system
info system
info system
info system
info system
info system
info system
info system
info system
info system
info system
info system
info system
info system
info system
info system
info system
info system
info system
info system
info system
info system
info system
info system
info system
info system
info system
info system
info system
info system
info system
info system
info system
info system
info system
info system
info system
info system
info system
info system
info system
info system
info system
info system
info system
info system
info system
info system
info system
info system
info system
info system
info system
info system
info system
info system
info system
info system
info system
info system
info system
info system
info system
info system
info system
info system
info system
info system
info system
info system
info system
info system
info system
info system
info system
info system
info system
info system
info system
info system
info system
info system
info system
info system
info system
info system
info system
info system
info system
info system
info system
info system
info system
info system
info system
info system
info system
info system
info system
info system
info system
info system
info system
info system
info system
info system
info system
info system
info system
info system
info system
info system
info system
info system
info system
info system
info system
info system
info system
info system
info system
info system
info system
info system
info system
info system
info system
info system
info system
info system
info system
info system
info system
info system
info system
info system
info system
info system
info system
info system
info system
info system
info system
info system
info system
info system
info system
info system
info system
info system
info system
info system
info system
info system
info system
info system
info system
info system
info system
info system
info system
info system
info system
info system
info system
info system
info system
info system
info system
info system
info system
info system
info system
info system
info system
info system
info system
info system
info system
info system
info system
info system
info system
info system
info system
info system
info system
info system
info system
info system
info system
info system
info system
info system
info system
info system
info system
info system
info system
info system
info system
info system
info system
info system
info system
info system
info system
info system
info system
info system
info system
info system
info system
info system
info system
info system
info system
info system
info system
info system
info system
info system
info system
info system
info system
info system
info system
info system
info system
info system
info system
info system
info system
info system
info system
info system
info system
info system
info system
info system
info system
info system
info system
info system
info system
info system
info system
info system
info system
info system
info system
info system
info system
info system
info system
info system
info system
info system
info system
info system
info system
info system
info system
info system
info system
info system
info system
info system
info system
info system
info system
info system
info system
info system
info system
info system
info system
info system
info system
info system
info system
info system
info system
info system
info system
info system
info system
info system
info system
info system
info system
info system
info system
info system
info system
info system
info system
info system
info system
info system
info system
info system
info system
info system
info system
info system
info system
info system
info system
info system
info system
info system
info system
info system
info system
info system
info system
info system
info system
info system
info system
info system
info system
info system
info system
info system
info system
info system
info system
info system
info system
info system
info system
info system
info system
info system
info system
info system
info system
info system
info system
info system
info system
info system
info system
info system
info system
info system
info system
info system
info system
info system
info system
info system
info system
info system
info system
info system
info system
info system
info system
info system
info system
info system
info system
info system
info system
info system
info system
info system
info system
info system
info system
info system
info system
info system
info system
info system
info system
info system
info system
info system
info system
info system
info system
info system
info system
info system
info system
info system
info system
info system
info system
info system
info system
info system
info system
info system
info system
info system
info system
info system
info system
info system
info system
info system
info system
info system
info system
info system
info system
info system
info system
info system
info system
info system
info system
info system
info system
info system
info system
info system
info system
info system
info system
info system
info system
info system
info system
info system
info system
info system
info system
info system
info system
info system
info system
info system
info system
info system
info system
info system
info system
info system
info system
info system
info system
info system
info system
info system
info system
info system
info system
info system
info system
info system
info system
info system
info system
info system
info system
info system
info system
info system
info system
info system
info system
info system
info system
info system
info system
info system
info system
info system
info system
info system
info system
info system
info system
info system
info system
info system
info system
info system
info system
info system
info system
info system
info system
info system
info system
info system
info system
info system
info system
info system
info system
info system
info system
info system
info system
info system
info system
info system
info system
info system
info system
info system
info system
info system
info system
info system
info system
info system
info system
info system
info system
info system
info system
info system
info system
info system
info system
info system
info system
info system
info system
info system
info system
info system
info system
info system
info system
info system
info system
info system
info system
info system
info system
info system
info system
info system
info system
info system
info system
info system
info system
info system
info system
info system
info system
info system
info system
info system
info system
info system
info system
info system
info system
info system
info system
info system
info system
info system
info system
info system
info system
info system
info system
info system
info system
info system
info system
info system
info system
info system
info system
info system
info system
info system
info system
info system
info system
info system
info system
info system
info system
info system
info system
info system
info system
info system
info system
info system
info system
info system
info system
info system
info system
info system
info system
info system
info system
info system
info system
info system
info system
info system
info system
info system
info system
info system
info system
info system
info system
info system
info system
info system
info system
info system
info system
info system
info system
info system
info system
info system
info system
info system
info system
info system
info system
info system
info system
info system
info system
info system
info system
info system
info system
info system
info system
info system
info system
info system
info system
info system
info system
info system
info system
info system
info system
info system
info system
info system
info system
info system
info system
info system
info system
info system
info system
info system
info system
info system
info system
info system
info system
info system
info system
info system
info system
info system
info system
info system
info system
info system
info system
info system
info system
info system
info system
info system
info system
info system
info system
info system
info system
info system
info system
info system
info system
info system
info system
info system
info system
info system
info system
info system
info system
info system
info system
info system
info system
info system
info system
info system
info system
info system
info system
info system
info system
info system
info system
info system
info system
info system
info system
info system
info system
info system
info system
info system
info system
info system
info system
info system
info system
info system
info system
info system
info system
info system
info system
info system
info system
info system
info system
info system
info system
info system
info system
info system
info system
info system
info system
info system
info system
info system
info system
info system
info system
info system
info system
info system
info system
info system
info system
info system
info system
info system
info system
info system
info system
info system
info system
info system
info system
info system
info system
info system
info system
info system
info system
info system
info system
info system
info system
info system
info system
info system
info system
info system
info system
info system
info system
info system
info system
info system
info system
info system
info system
info system
info system
info system
info system
info system
info system
info system
info system
info system
info system
info system
info system
info system
info system
info system
info system
info system
info system
info system
info system
info system
info system
info system
info system
info system
info system
info system
info system
info system
info system
info system
info system
info system
info system
info system
info system
info system
info system
info system
info system
info system
info system
info system
info system
info system
info system
info system
info system
info system
info system
info system
info system
info system
info system
info system
info system
info system
info system
info system
info system
info system
info system
info system
info system
info system
info system
info system
info system
info system
info system
info system
info system
info system
info system
info system
info system
info system
info system
info system
info system
info system
info system
info system
info system
info system
info system
info system
info system
info system
info system
info system
info system
info system
info system
info system
info system
info system
info system
info system
info system
info system
info system
info system
info system
info system
info system
info system
info system
info system
info system
info system
info system
info system
info system
info system
info system
info system
info system
info system
info system
info system
info system
info system
info system
info system
info system
info system
info system
info system
info system
info system
info system
info system
info system
info system
info system
info system
info system
info system
info system
info system
info system
info system
info system
info system
info system
info system
info system
info system
info system
info system
info system
info system
info system
info system
info system
info system
info system
info system
info system
info system
info system
info system
info system
info system
info system
info system
info system
info system
info system
info system
info system
info system
info system
info system
info system
info system
info system
info system
info system
info system
info system
info system
info system
info system
info system
info system
info system
info system
info system
info system
info system
info system
info system
info system
info system
info system
info system
info system
info system
info system
info system
info system
info system
info system
info system
info system
info system
info system
info system
info system
info system
info system
info system
info system
info system
info system
info system
info system
info system
info system
info system
info system
info system
info system
info system
info system
info system
info system
info system
info system
info system
info system
info system
info system
info system
info system
info system
info system
info system
info system
info system
info system
info system
info system
info system
info system
info system
info system
info system
info system
info system
info system
info system
info system
info system
info system
info system
info system
info system
info system
info system
info system
info system
info system
info system
info system
info system
info system
info system
info system
info system
info system
info system
info system
info system
info system
info system
info system
info system
info system
info system
info system
info system
info system
info system
info system
info system
info system
info system
info system
info system
info system
info system
info system
info system
info system
info system
info system
info system
info system
info system
info system
info system
info system
info system
info system
info system
info system
info system
info system
info system
info system
info system
info system
info system
info system
info system
info system
info system
info system
info system
info system
info system
info system
info system
info system
info system
info system
info system
info system
info system
info system
info system
info system
info system
info system
info system
info system
info system
info system
info system
info system
info system
info system
info system
info system
info system
info system
info system
info system
info system
info system
info system
info system
info system
info system
info system
info system
info system
info system
info system
info system
info system
info system
info system
info system
info system
info system
info system
info system
info system
info system
info system
info system
info system
info system
info system
info system
info system
info system
info system
info system
info system
info system
info system
info system
info system
info system
info system
info system
info system
info system
info system
info system
info system
info system
info system
info system
info system
info system
info system
info system
info system
info system
info system
info system
info system
info system
info system
info system
info system
info system
info system
info system
info system
info system
info system
info system
info system
info system
info system
info system
info system
info system
info system
info system
info system
info system
info system
info system
info system
info system
info system
info system
info system
info system
info system
info system
info system
info system
info system
info system
info system
info system
info system
info system
info system
info system
info system
info system
info system
info system
info system
info system
info system
info system
info system
info system
info system
info system
info system
info system
info system
info system
info system
info system
info system
info system
info system
info system
info system
info system
info system
info system
info system
info system
info system
info system
info system
info system
info system
info system
info system
info system
info system
info system
info system
info system
info system
info system
info system
info system
info system
info system
info system
info system
info system
info system
info system
info system
info system
info system
info system
info system
info system
info system
info system
info system
info system
info system
info system
info system
info system
info system
info system
info system
info system
info system
info system
info system
info system
info system
info system
info system
info system
info system
info system
info system
info system
info system
info system
info system
info system
info system
info system
info system
info system
info system
info system
info system
info system
info system
info system
info system
info system
info system
info system
info system
info system
info system
info system
info system
info system
info system
info system
info system
info system
info system
info system
info system
info system
info system
info system
info system
info system
info system
info system
info system
info system
info system
info system
info system
info system
info system
info system
info system
info system
info system
info system
info system
info system
info system
info system
info system
info system
info system
info system
info system
info system
info system
info system
info system
info system
info system
info system
info system
info system
info system
info system
info system
info system
info system
info system
info system
info system
info system
info system
info system
info system
info system
info system
info system
info system
info system
info system
info system
info system
info system
info system
info system
info system
info system
info system
info system
info system
info system
info system
info system
info system
info system
info system
info system
info system
info system
info system
info system
info system
info system
info system
info system
info system
info system
info system
info system
info system
info system
info system
info system
info system
info system
info system
info system
info system
info system
info system
print "$(pe)"
-828708.91118867113255
Total wall time: 0:01:40
