LAMMPS data file via write_data, version 2 Aug 2023, timestep = 50114, units = real

4500 atoms
2 atom types

3.46583817797778 42.91446311979912 xlo xhi
-16.25847429293338 62.63877559071126 ylo yhi
3.46583817797778 42.91446311979912 zlo zhi

Masses

1 28.086
2 15.9994

Atoms # charge

1797 2 0 8.789562781906731 2.3789263869829007 8.065628763202774 0 2 0
3055 2 0 4.1669858935810655 2.993134840180062 4.461720963938799 0 1 2
1380 1 0 9.697989977958082 3.3761978975534923 8.78445599197638 0 1 0
1769 2 0 10.413284540980253 3.1458816220150787 10.159831653336042 1 1 0
2868 2 0 20.36920788463423 3.1160730323914656 11.035200811135066 1 1 1
1047 1 0 7.680344415010107 8.32479704171859 5.937198127106887 1 0 0
3433 2 0 8.114680927387369 7.818148467584631 7.410478951119259 1 1 0
3065 2 0 6.8864429409459245 7.093183151172024 5.17593383702768 1 0 1
1367 1 0 6.570462418393235 5.580821445401593 5.589207428104784 1 0 0
2831 2 0 5.3949769337565225 5.5463492345514 9.615729527018452 0 1 1
305 1 0 4.951571653984036 5.314946078899872 8.101150995596196 0 0 1
3761 2 0 6.350787067602749 5.524814128030538 7.173357029102673 1 0 0
1829 2 0 9.015604766299013 8.733139130795081 5.071082222770174 0 2 1
3956 2 0 4.377905000549404 4.024598526306779 7.303525106202784 2 1 0
2459 2 0 7.706422011096217 4.64692661870966 4.720763637148294 0 1 1
2887 2 0 5.11659379995216 5.063446395908034 4.963452091918813 0 0 1
2095 2 0 6.922705772586459 7.982251964090288 9.844612185374325 2 0 1
16 1 0 8.239468654782463 8.371042447826877 8.929390012867419 0 0 1
3242 2 0 9.618462538376635 7.666177514734159 9.543048746326612 0 1 0
1092 1 0 3.9696758903689267 4.065977280994055 5.657361404759084 0 1 0
3970 2 0 4.573883616793685 7.954066957310534 10.765678155916735 2 1 1
107 1 0 5.79675792450673 6.91928056801968 10.56226521138933 1 1 0
179 1 0 9.890794191481467 8.150161857414119 3.789855660052027 1 1 0
1479 1 0 4.2052278064016875 9.502708871852331 10.467728969409514 0 1 1
2679 2 0 6.606031676838297 9.49744989459866 6.172450228335977 1 0 1
3483 2 0 3.8335006751425755 6.540253081961399 7.894179635992934 0 0 1
2985 2 0 4.586182633858051 9.870045070070951 8.945722193297021 0 0 0
3229 2 0 22.64037966708956 7.017621658420019 10.944855524321628 -1 1 0
3140 2 0 10.00183240534186 5.472563094808091 11.153471583077318 1 0 0
2089 2 0 10.431360493532406 4.596712406279284 8.049016419770698 1 1 1
1143 1 0 10.563778628081431 6.883548494675967 10.614120645919249 1 1 1
2408 2 0 15.497091865596877 9.521509768802975 5.014684033947569 0 1 2
3432 2 0 11.994457251576613 6.173520018831084 9.697260593980054 0 0 0
4276 2 0 11.87102885861332 6.82128910228414 7.14511133462668 1 1 1
997 1 0 13.270405976150235 7.6294718496681355 6.754738288186599 0 0 0
3488 2 0 14.423714566006943 6.858526049892102 7.71789688194546 1 2 0
3368 2 0 13.084393725563832 9.170838609010307 7.155390654152359 1 1 1
2528 2 0 13.6674356609563 7.324143153788416 5.228761585108541 0 1 1
3910 2 0 13.158643787464175 4.732558163035005 7.838645280556616 2 1 0
1378 1 0 11.75191659020232 5.543994287349264 8.18180000001049 1 0 0
1235 1 0 13.26659174735928 5.644304759310387 10.735324644444589 0 0 1
2151 2 0 14.545252924079998 5.216927734878837 9.826471800555993 0 -1 0
175 1 0 12.714872548980077 7.251631090055323 3.880966868912644 -1 0 0
1414 1 0 14.686292957094029 5.324491964116046 8.186416280568453 -1 0 0
1721 2 0 11.170965101701226 7.299780809891981 4.370344889259362 0 0 1
3366 2 0 16.162308649045617 4.77916792389729 7.856045944368064 1 0 0
4486 2 0 16.60262485707937 8.422928007426986 7.205041470644211 0 1 0
150 1 0 16.641075565724105 8.38963368414694 5.5935983624505115 0 0 0
581 1 0 17.83696654599934 5.5969774590240675 5.0229367062320875 1 1 0
1663 2 0 16.97336302357556 4.246856646374933 4.532758049699471 1 0 0
3918 2 0 18.074151032193786 8.990897712704658 5.125161090107611 0 0 0
1196 1 0 20.97473961689804 5.748748392058477 4.105452404446859 0 0 1
2313 2 0 16.748349159709534 6.819816940271721 5.059050850439761 -1 1 1
1478 1 0 22.840086722900452 7.994408308342781 4.540249780017162 0 1 0
2971 2 0 16.869042135793173 9.311390009109065 9.72663711763264 0 1 1
1291 1 0 22.66669489385685 5.403490256028888 10.752522124313323 0 0 0
568 1 0 18.399201243411422 9.84337988874032 3.7113204083215257 1 0 0
4144 2 0 18.939008618831373 9.220331838063661 7.977328045842826 0 0 0
2997 2 0 19.30932575224478 5.668240970131244 4.204871476625307 1 1 1
4343 2 0 21.97967969862069 5.073024493420327 5.324504457643356 0 0 1
4443 2 0 20.440144328989916 8.441574487476302 9.921042899954752 0 0 1
4462 2 0 18.416338388585206 5.388436035254198 6.551722869662215 1 1 1
2380 2 0 21.368011578978646 4.96804776132247 9.648609468012587 0 1 0
1352 1 0 20.186725231243756 9.758603758964906 8.935723048138911 1 0 0
3645 2 0 22.75958398791537 9.575258171913678 4.271093507002542 0 0 0
1957 2 0 21.32428827462221 7.307141645666533 4.54226700415509 0 0 1
2306 2 0 17.90812990978081 6.794219677140717 8.779385581217772 0 0 0
125 1 0 20.053147277732606 4.076677794503933 9.759141316916299 1 0 0
1301 1 0 17.577620402019356 8.362476253352504 8.501541468659433 -1 1 0
2446 2 0 18.61649944813918 4.277275456874964 9.099741167635408 0 0 0
90 1 0 17.78811142552597 5.319830942500467 8.105310917450595 0 0 0
229 1 0 21.40379299648359 8.159951416183326 11.26528428668538 0 0 0
3199 2 0 4.926009187001513 2.5286827328425048 15.1663460580465 1 1 0
2864 2 0 14.705681003067939 2.845233692124829 17.966224692424518 0 1 0
2153 2 0 12.307675628454472 3.049954577388018 14.994406783650229 1 0 -1
2707 2 0 21.08882662475443 2.8120285754782515 13.823957591931288 0 1 0
4450 2 0 21.914346448126558 3.1783055625640095 16.82619386185924 0 1 0
3530 2 0 7.581771091740982 6.9010730925880885 14.273647982514316 0 0 1
3036 2 0 7.358913102507825 8.75552882572616 16.355298310014966 1 0 -1
606 1 0 6.215540185416282 6.2446796379080105 13.63549102333605 0 0 0
1549 2 0 6.085665300063464 4.8222500705813935 14.31699023691135 0 0 1
624 1 0 5.1632896008189 4.064845473702423 15.486884444200122 0 0 1
4042 2 0 6.003527870841098 4.314905735228173 16.910230510110047 1 0 0
570 1 0 8.255332882343273 8.140265007953168 15.073393901869293 1 0 0
267 1 0 7.59498426721689 9.080663653746072 17.958904854412623 0 0 0
4078 2 0 8.080713418960203 5.827481743335941 16.697669898812265 0 0 1
1391 1 0 6.797797728572472 5.550257583858322 17.654731086297552 0 0 0
3762 2 0 4.847471570828547 7.11822447055248 13.914731523509376 2 0 0
4127 2 0 6.3784969338555175 6.326064578849042 11.962835857772527 1 1 0
2676 2 0 6.076929297331753 9.243162745749107 18.47440633055531 0 0 0
1977 2 0 8.447393242478302 9.452420856388702 14.119263348885966 0 1 0
1940 2 0 8.1847736375821 7.694695378194194 18.67954941414504 0 1 1
1185 1 0 5.012653574990181 8.077396627026609 18.667311634716384 1 0 0
4236 2 0 5.565554334257028 6.691459340487324 17.97475406237192 0 0 0
3385 2 0 9.682770932825115 7.665245685081938 15.934217835363347 0 2 1
139 1 0 9.69681212834561 6.046356957400786 16.492429411524235 0 -1 0
2710 2 0 3.661907491360556 8.409646488812157 17.67635365616651 1 0 1
2629 2 0 7.30852294692324 5.1026677479211315 19.102019159394587 0 0 0
3161 2 0 3.7456462108665862 4.8547079331390925 15.70906868491283 0 1 0
2439 2 0 5.941913627660885 9.929681864341532 13.988994054216091 0 0 0
2897 2 0 10.545706797494109 3.6949075395171995 13.119646596566149 1 1 1
3687 2 0 19.60319975208146 4.6690354473359825 12.972187528168744 0 1 0
4230 2 0 10.273219801138719 4.817411687493291 15.583301697217555 1 2 0
2142 2 0 10.291700794358299 6.314768206825033 18.019278871536912 1 1 0
574 1 0 13.17803108329681 6.628063451085808 18.642276873826418 0 0 1
3405 2 0 16.198472428204884 4.895306661219877 16.950534748984076 -1 0 0
2486 2 0 12.181953777326875 5.611844298698141 14.071839243110713 1 1 0
2587 2 0 12.21665118879492 7.275193883183011 16.05195372753764 0 0 0
1135 1 0 13.202880102578876 6.721943659914686 14.858025834091196 -1 0 1
3793 2 0 14.714116190101493 6.178440024331792 15.075109166557606 0 0 -1
2432 2 0 13.230275490440846 8.081756971156285 13.900541382620121 1 0 0
1363 1 0 15.111828971925778 4.368416087807116 18.111318081630124 0 0 -1
1050 1 0 16.29889854980642 5.89404779304979 15.639866183585127 0 0 0
382 1 0 11.201044116222198 8.587323256088002 16.01700499318769 0 1 0
1106 1 0 11.410684455963555 4.221853413643533 14.492834140580857 0 1 0
3126 2 0 13.788294044917457 5.418773852493125 17.841103675444035 1 0 1
252 1 0 12.90269448803528 8.112308211171676 12.330050378953166 1 0 0
185 1 0 15.074101895126008 9.03173216021705 18.575599267162218 1 1 1
3521 2 0 13.71377237605714 8.102694086920263 18.35709566776284 -1 1 1
3809 2 0 11.314811429347776 7.68251112727458 11.874270279809794 0 0 0
2844 2 0 16.23603596608956 7.837410869816555 18.590384057194065 1 0 0
1664 2 0 11.25402819828938 9.560145054404206 17.29450198270496 0 1 0
2454 2 0 11.178516241209797 9.750124620819015 14.820806310955911 0 0 0
424 1 0 10.807380116419994 4.0665223075677766 11.611556466763304 0 1 0
1417 1 0 10.455011047627007 9.879530747991964 18.774114270981705 1 0 0
2140 2 0 13.790308066407885 6.926983193881682 11.683762603918934 0 1 0
3293 2 0 12.962041980279004 9.579407468224105 11.6118423733121 -1 1 0
38 1 0 20.297762037318094 7.736573924597881 14.035670481810866 0 0 0
4278 2 0 19.142469582763088 8.980410958969145 14.16718562484853 1 0 1
4312 2 0 18.281016217503268 9.091997202198616 17.96146037123232 -2 1 0
2743 2 0 20.61860557136299 7.437208599133726 12.473832604071461 1 1 1
1657 2 0 17.068202747358708 7.239784015278804 16.21649954287412 1 0 1
2295 2 0 21.84154958811204 9.605159161762401 11.764478253836483 0 0 0
1559 2 0 20.431576809407016 4.31837548045911 18.638738942218705 -1 0 0
4493 2 0 19.62847878866551 3.942873189345061 15.500632459634698 0 1 1
1259 1 0 18.920871985469923 5.01083924003024 14.462956471063732 1 0 0
1084 1 0 19.468228190603533 5.63190521786921 19.126413625880843 0 1 -1
122 1 0 21.766996265344762 9.754417433067761 15.560757358649223 1 0 -1
667 1 0 19.7557363289678 9.75730057688768 17.900226444713798 0 1 0
4422 2 0 18.789139115244275 6.614103274041291 17.97822135235271 0 1 0
2483 2 0 22.618010541582 5.627261946053263 17.79331800264991 -1 0 0
1101 1 0 21.228796589485142 3.457951494260012 15.392604708148305 0 1 -1
4481 2 0 22.18017389213759 4.69830040204987 14.822732127728734 -1 0 0
3463 2 0 17.31582120677605 5.148094294215799 14.542817502848582 0 0 0
2251 2 0 22.30058179606794 4.631816019048369 12.248262702334543 0 0 0
903 1 0 20.86447371974327 3.662792019775239 12.51719120600549 0 0 0
3699 2 0 20.758639503528908 8.941849955812106 18.732043417958096 0 1 0
1771 2 0 21.628894063824152 8.259695665501301 14.895363658747357 0 0 1
2534 2 0 20.307073567348496 9.835892582300758 16.383989146051146 0 1 -1
245 1 0 22.031758329772337 4.213248829408162 18.240706469161857 0 0 0
707 1 0 17.57959380931154 7.611632270914221 17.679465560628554 0 1 -1
2462 2 0 19.75317163099146 6.414988188934288 14.856936097543196 0 1 1
3969 2 0 12.419410213187449 4.513310813661388 11.515687957202367 -1 2 0
4066 2 0 7.119303343900539 2.2862960841937934 23.616984763871994 0 0 0
2392 2 0 9.426638956758296 3.1499576300940433 22.646521163043467 1 1 1
370 1 0 7.77025389322302 3.446830594926844 22.777040561023085 0 -1 -1
3678 2 0 17.447832029525415 2.7121993686200767 20.07023431874742 -1 0 1
3786 2 0 7.076026892330642 3.6708764158096763 21.335381904131665 0 1 0
2890 2 0 3.8064790456392856 7.0242563382319965 25.120951093530408 0 0 0
204 1 0 4.119409098809324 5.501559346371394 25.666650397331665 0 1 0
4072 2 0 7.4733071195486005 6.94808170640345 25.101514901756126 0 0 0
853 1 0 6.061152948247901 7.8928343391560425 21.58434560192249 0 1 1
1108 1 0 8.495344059342244 8.248196703110242 24.963210230046887 1 1 0
4054 2 0 5.318486454377908 7.431094576720877 23.01817038223483 0 1 -1
2091 2 0 5.628828922973287 4.9900664610979675 25.051320600171543 1 0 0
634 1 0 7.296324893719946 5.298761832085997 25.085806567809474 0 1 0
2482 2 0 7.853277974126448 4.861465754215061 23.602783304770394 1 0 0
3702 2 0 5.025809477738741 7.818273135129498 20.269374209944054 0 0 -1
1517 2 0 7.593404603549009 8.784406697736085 21.408921481027036 1 0 0
3724 2 0 8.295765759625413 4.49882952669514 26.15644502946139 1 -1 -1
486 1 0 4.33087531897472 8.236961905622959 24.05282126848229 -1 1 0
2560 2 0 8.534813285268733 8.926261452975723 26.531531602134628 1 1 -1
2054 2 0 6.829590826084828 6.3364797548882805 21.287009681303683 1 0 -1
4243 2 0 7.9062098989960585 9.33073761276745 23.88778391314306 1 1 1
1877 2 0 4.8270097144991055 4.84819371101397 20.287578256666094 1 0 -1
3844 2 0 4.986531597822344 9.579213763198506 24.820942052472525 1 0 -1
802 1 0 6.527723101490194 4.996180226855959 20.567837435830246 0 1 1
1191 1 0 8.414111347292287 9.80010151059976 22.38686583856125 1 0 1
2300 2 0 9.970716700163376 6.223806783688325 20.65856606606039 1 0 0
2326 2 0 10.07363336314642 7.967250040282249 24.704792128489444 1 1 0
3376 2 0 5.313974691153034 9.759235665348882 21.970057145369946 -1 -1 0
1371 1 0 9.602768876122315 7.103912037793158 19.2910083521988 0 1 0
2163 2 0 6.066078990060648 8.819128130427053 26.96518509126496 0 0 0
384 1 0 3.4804674153616655 4.36234033033325 19.662744530752512 0 0 0
1690 2 0 10.03584973299892 9.755488432754017 22.197639737096722 1 0 0
4277 2 0 14.239192225547027 8.356385891325097 26.746901057789675 0 0 0
3304 2 0 12.305597650535894 4.2009225875225304 26.958259213688326 1 1 0
3226 2 0 12.59057078257606 9.618318382641682 21.578075471611978 1 0 0
2715 2 0 11.591461942133346 4.577256220022633 21.957693181529546 1 0 1
143 1 0 11.46106787415842 6.08241026732907 21.29077401150524 0 1 0
3923 2 0 11.812245503244387 7.22018253991962 22.39164686396045 1 0 1
507 1 0 12.840361140673323 8.426787566718673 22.652052943048673 0 0 0
3833 2 0 14.365841030342077 7.850947514802389 22.537673139458125 0 1 0
307 1 0 15.828416962253515 7.961678013497302 23.20871494501914 0 1 0
191 1 0 12.498980019642266 4.718403081215396 25.396405571801015 0 0 -1
3908 2 0 13.015860685689223 6.299376736359445 25.603083267936093 0 0 0
1643 2 0 12.545651464268937 6.188435247436203 20.09743354620829 0 1 1
2264 2 0 15.667144815463612 9.191421742990048 24.472334304496282 -1 1 1
3268 2 0 11.080627822261768 4.573287971794528 24.550781602742877 1 1 -1
3741 2 0 12.482371429470764 9.096619248096516 24.067553502140505 2 0 0
4323 2 0 13.477843608536652 3.8471863273029747 24.49347470753826 0 1 0
1724 2 0 11.669321406162839 8.528278988641699 26.537904535943895 0 1 0
393 1 0 11.194536924611187 9.101601082368934 25.10128287332081 0 1 0
1242 1 0 15.730073818617267 8.828366835408353 26.26978951240867 1 0 0
396 1 0 10.748196164429984 3.912976573629944 23.16543241085712 0 0 0
3010 2 0 15.681106686072807 4.753393496813523 19.62990858379942 0 0 1
2334 2 0 10.580429836527301 8.342991641988359 19.526216646519362 0 1 0
3638 2 0 15.29487028805449 9.749635093042937 19.99052500936233 0 1 0
711 1 0 12.875906497905829 7.4475283072239975 26.84088024061876 0 1 0
4035 2 0 16.50107680729066 10.00365240449662 27.033652647204068 1 0 -1
3117 2 0 16.398329499512116 6.52722541622548 23.701171067658517 1 0 0
4441 2 0 16.68906781054966 8.740886295628428 22.026593570010576 1 0 0
3810 2 0 18.99934112665124 8.932419830290602 23.887029210999085 -1 0 1
1485 1 0 19.771032229963335 5.137584977942701 25.303738434261042 0 0 0
3731 2 0 18.733467955502228 6.607808828629793 22.50912987573504 0 1 0
3639 2 0 16.62377664891467 7.491873697289687 26.24699737560455 -1 1 -1
3960 2 0 21.131049604941488 5.08634791853234 24.38184523987622 0 1 0
2689 2 0 18.887677647372467 9.498759931089019 26.493710315094624 1 0 0
2942 2 0 21.882015062168914 6.485342296950453 26.85859315945775 0 0 -1
1668 2 0 21.064864895475587 7.44972649445906 23.19059631252045 0 1 0
938 1 0 19.586731733918917 8.00111891685943 22.72376762501066 0 0 0
994 1 0 21.984159784677466 6.075033329651781 23.277778272456032 1 1 -1
1608 2 0 22.25199130060071 5.164738578613086 21.933633136504255 0 2 1
234 1 0 19.742752442091565 9.684265455356986 25.118023215114178 1 0 0
1530 2 0 21.201599635404794 8.965908336461926 25.440158937915175 1 2 0
99 1 0 20.854995114645348 8.143049799569862 20.09867987967474 0 1 1
3107 2 0 17.019537288884937 4.439295451049098 22.1160488540025 1 1 -1
2548 2 0 22.359401378652738 8.308932242258585 20.78635828596084 0 0 0
2857 2 0 20.4045735980209 4.346636515786937 26.606572905106372 1 0 0
269 1 0 17.000591599486633 4.149536895468426 20.490911403560506 0 0 -1
1150 1 0 22.00216565065161 8.047783911515253 26.501566892078916 -1 1 0
4419 2 0 19.17668788448821 6.548815228216704 25.959814543094787 1 0 0
2018 2 0 22.974043972115826 3.7875360111311487 19.586848395776027 0 0 0
2883 2 0 19.797940250377298 8.66399184483862 21.225209443769813 0 0 0
3732 2 0 18.436460288068673 4.745551634903702 24.387017113966216 0 0 0
3935 2 0 20.46379200074803 6.554327975904556 19.98395450197969 1 0 0
732 1 0 17.626337851663866 5.552796594844494 23.192906959159007 0 0 0
3316 2 0 18.09354869035611 5.329190039516707 19.971202464902174 1 0 0
1230 1 0 17.91748456717584 6.882822199302879 27.007019448128506 0 0 -1
2086 2 0 9.105592390452657 2.7911550663850058 28.20298342772289 1 1 -1
3590 2 0 4.307406194137115 6.599491655873383 32.19466588128775 0 0 0
3210 2 0 6.318747904987535 6.819474510507263 30.6112811518297 1 1 1
1115 1 0 7.674352940091422 6.271841421883817 29.675806320207897 0 1 1
1188 1 0 4.833816986464111 5.666894363556789 33.40613101781444 1 1 0
3819 2 0 5.11922809480592 9.04648336436951 33.41531928077255 0 0 0
4483 2 0 6.221300138764202 5.013742054292031 32.69324283144928 0 1 0
2620 2 0 7.656772033014521 7.365505676868587 33.01462999115528 1 0 -1
3682 2 0 3.8787690017131897 4.637016709563142 34.26505294410916 1 1 0
593 1 0 4.7764061312049435 7.3012202037138 30.7092686835175 0 -1 1
3365 2 0 4.652173623061845 8.939902040395797 30.861241879414376 0 2 -1
2391 2 0 4.053662483675876 6.8129919291860475 29.3756060305784 1 0 0
102 1 0 4.207110641305037 9.708913931342334 32.25234183431471 0 0 0
413 1 0 8.291390336303799 8.807110787551657 32.56268083075145 1 0 0
2606 2 0 7.5969321881519845 4.911452557274615 28.660484891476056 0 1 0
2809 2 0 8.417372169801999 5.674825225069416 31.0456429963343 0 1 0
2847 2 0 8.110089310114994 7.5747093382893915 28.688095327289503 1 1 -1
2191 2 0 8.455882800213324 4.898329405350783 33.79570015968501 0 0 0
3787 2 0 7.983994928009194 9.154127829116813 30.968557066419816 1 0 1
1233 1 0 7.529904450018336 8.783029452524136 27.740160616743324 1 0 0
1395 1 0 7.759072833208671 5.717594120828906 32.53503571694635 -1 1 0
657 1 0 8.781871351004876 4.250641299666096 27.77335712448377 0 0 0
405 1 0 6.270726131678612 9.78503896498465 34.343410217138576 1 0 -1
2609 2 0 5.448226770804706 6.599178118151389 34.63471419786431 0 0 0
2020 2 0 4.332674640328309 5.311894419264778 27.228773010311784 1 1 0
2948 2 0 7.600349616507314 9.979115575375207 33.43512939524687 -1 0 0
2134 2 0 4.146841600015773 4.23981513902568 29.61594525295936 0 1 0
1279 1 0 3.5634603153001776 5.414968769590072 28.70049151396124 0 0 0
3060 2 0 9.96088340087443 8.54656666597959 32.57156856849966 1 1 -1
3767 2 0 10.235470449759347 5.104532982764319 28.21750430990322 0 -1 1
3485 2 0 15.648107381346627 4.272555483921362 34.38829918210108 0 1 0
4370 2 0 14.656970763227772 8.053849069854955 31.29720761507787 0 0 -1
1241 1 0 13.624296634429642 7.402399423488465 32.36593079166124 0 1 -2
3670 2 0 13.05680668875391 6.1082942436644885 31.542540486648576 0 1 1
496 1 0 13.883905476322475 5.129854348762045 30.472661766853307 0 -1 0
4131 2 0 12.468593098243485 8.025847972033581 33.49899258796645 0 0 0
2845 2 0 14.829879546078583 6.692277079119119 33.44903828923951 0 0 -1
77 1 0 11.832554266841516 5.006653085598721 28.29489392190454 0 0 0
92 1 0 15.881221154117105 9.07732910768966 31.63708736292614 0 1 0
4444 2 0 12.668100108407925 4.450326777500326 29.650132056516888 0 0 0
3796 2 0 12.465740494137519 6.504303673235153 28.18652283687902 0 1 2
3799 2 0 15.146545556448467 5.406638271650749 29.357833482200853 0 1 0
759 1 0 11.388754118151592 9.255909296421244 32.60318841363942 0 0 0
2588 2 0 12.325319520615146 9.590505713247016 31.351567375345887 1 0 0
2917 2 0 14.80463060787985 4.37746215979945 31.637612696938046 0 0 0
700 1 0 15.675984238994515 4.9662423736856915 32.90032336513488 0 1 -1
540 1 0 16.628019606170774 4.867128983335686 28.954649707831845 0 0 0
3098 2 0 15.293916834184813 9.888503186899015 32.97463163683213 0 0 -1
674 1 0 15.240026068805584 7.284179894486698 34.93561762611657 0 2 0
3794 2 0 23.083748973068612 9.420319128941152 29.915921758603073 -1 0 0
3381 2 0 17.61504098493827 9.877054642405778 34.20057718119248 1 0 -1
4418 2 0 17.173348219495317 5.403218458134038 32.521445248278695 -1 0 0
2074 2 0 22.62176812309189 3.6817921686283945 33.1289560773235 0 0 0
2167 2 0 17.644822233261117 4.4436291194395885 30.149831861915445 0 0 0
931 1 0 18.45942583369004 5.044052251274213 31.495218241736353 0 0 1
3749 2 0 21.968706004444766 7.3099633726059885 34.647171270035656 0 1 0
1407 1 0 18.378202085984913 9.072136627291734 33.02333343489443 0 1 0
1878 2 0 17.312616770152847 5.336339634378586 27.583418235778527 1 1 -1
2221 2 0 19.00923420016585 6.5070338965001255 30.99528804331246 1 1 0
3181 2 0 21.73657302100552 5.43590095077786 31.662131438793402 0 2 0
1272 1 0 19.40610160443358 7.258286887506895 29.565814592750595 0 0 0
4068 2 0 22.946589935632563 9.038351904938828 27.365344178663467 0 1 0
2905 2 0 21.41585434062918 9.864586753246979 34.306453200404135 0 1 0
1843 2 0 19.616623568016436 4.086355643937825 32.26173028394503 1 1 0
2475 2 0 20.0159240840769 6.01394674039301 28.62817435539132 0 1 -1
1684 2 0 18.22667242759408 7.610781901406842 28.47757784244816 0 0 0
611 1 0 21.14925790587952 8.346722492386139 33.608454174719284 0 0 0
4259 2 0 19.55598636201168 8.0310253777382 33.421248307856295 0 0 -1
4301 2 0 20.361579860917928 8.558238840244154 29.890344378938636 -1 1 -1
1443 1 0 21.224490557500914 5.1363376242780845 27.816039863019544 0 1 -1
3575 2 0 22.405824089778957 7.0155157791182 29.865241263940696 0 0 1
232 1 0 21.8746333289255 8.50781815166782 30.52554232957069 0 1 0
4223 2 0 20.651623825982046 5.140523325872355 34.39838760532666 -1 0 -1
4098 2 0 22.18499076972899 4.567405934402089 29.045731591097066 0 0 0
889 1 0 22.733368110492655 5.508016908633408 30.311812415098807 0 1 -1
4472 2 0 21.86998546458104 8.347255825667208 32.1258747287147 0 0 0
272 1 0 21.141897377688267 4.477106517167613 32.91760280127454 -1 1 -1
2461 2 0 17.09165502433045 8.240019905692009 32.30278515964716 0 0 0
469 1 0 5.009812450600904 3.2808616537174125 42.585571724154875 0 1 0
3987 2 0 6.586782894935929 2.8986158365680446 42.55654620842446 0 1 -1
1985 2 0 17.482166615571387 2.643080923479694 41.90123178645361 0 0 0
3109 2 0 4.580287528069914 8.86320684215751 36.87702857983141 1 0 1
228 1 0 5.992439769121653 5.323704975981368 40.61164313114407 1 0 -1
633 1 0 8.813583624609771 6.104100836834128 41.091849061887665 1 1 -1
2043 2 0 7.558886816664348 5.022619302935436 41.4711348185306 1 0 0
2434 2 0 8.44852607864565 6.934237946468233 39.75953941696131 -1 0 -1
503 1 0 8.471420936865371 8.447964227272834 39.038309702726615 1 1 -1
1074 1 0 5.666313493686935 9.417130794137371 38.10585760021189 1 1 0
2605 2 0 7.178801580709417 8.694227412117957 38.098611672382454 1 0 -1
3841 2 0 4.792285915539801 9.110289965274806 39.4217699538453 0 0 -1
2949 2 0 5.753461062366949 6.911165667318183 40.77286393945378 0 1 0
3520 2 0 9.110182066327 6.917209520886967 42.45205391107604 0 1 0
84 1 0 4.712434769659935 8.244913618420807 40.83539330776305 1 0 0
1673 2 0 6.220369126855349 4.734457261026314 39.10427721252303 1 1 0
1801 2 0 4.888124614134166 4.439677069562489 41.474357875052114 0 1 0
1004 1 0 5.892683429723093 4.924010712510221 37.49189825594426 1 1 -1
1778 2 0 7.001791754196379 4.254774272458 36.43488538233273 0 1 0
1945 2 0 5.9856449005289445 6.534751869510359 37.16134051738657 0 1 0
1693 2 0 8.041799317542537 6.44376830211969 35.68043926693786 0 1 0
1729 2 0 4.86943648319038 9.522781736552584 41.89851870383842 0 -1 0
201 1 0 8.280499047529077 4.893946495668562 35.455136413974046 1 1 -2
2322 2 0 9.60599479609501 4.3168732123549916 36.16761685816144 1 0 -1
3446 2 0 4.430844035745784 4.372015836904151 36.87728280099827 0 1 0
944 1 0 6.510066271751416 7.244764038792017 35.769965278694755 0 0 0
3883 2 0 6.769593545038585 8.792390445408564 35.476127788446924 2 -1 -1
2858 2 0 8.04144923844457 9.387298388030885 40.26689587815593 1 0 0
651 1 0 7.758424697127096 3.992212925977661 42.73733782062333 0 0 -1
1719 2 0 9.93394552790739 8.824808483035497 38.381644967844416 0 1 0
3194 2 0 10.003252354583543 9.334176826350799 42.094779184184596 0 0 -1
1764 2 0 10.101033776087789 5.21423052908122 40.76362267747623 0 0 0
1008 1 0 13.654049118359922 5.461433808751348 36.84195870765532 1 1 0
2798 2 0 12.341637590598873 4.570631369068707 36.586379511332254 0 0 0
1813 2 0 11.923349427486157 8.623216440804821 36.442540442771865 -1 0 0
2735 2 0 12.814203679148939 4.7021989372531365 40.208114266587344 0 0 0
3857 2 0 11.84060074165763 7.167301725670349 40.37504862173375 1 0 -1
1861 2 0 15.455326263540403 7.734027762465672 37.750293914793694 1 0 0
300 1 0 12.687080710096977 8.651818243539182 40.71481011770897 1 0 0
1766 2 0 14.117551291966686 8.343776777986715 40.04482732551564 0 1 -1
837 1 0 14.614332786554437 7.1235740804854615 39.04392045455037 1 0 0
1067 1 0 10.836395556090329 5.23593226636325 36.679751730834575 0 1 0
3223 2 0 13.521269795319393 6.353459300330822 38.222013993725696 0 1 0
1730 2 0 15.12280485581542 5.949940226066303 40.17178642054868 0 0 -1
3048 2 0 10.798385122722095 5.7476211357632 38.2656223816534 0 0 0
755 1 0 11.471492011226527 5.647889364844545 39.795878037125 1 0 -1
1955 2 0 15.129374123280552 4.721783990933808 36.836017813119156 0 0 1
2849 2 0 11.085464885264217 6.428428359343862 35.536336639852564 0 0 1
907 1 0 14.07114664301907 5.1074292994487465 41.27321610414724 0 1 0
3154 2 0 12.851884728204764 8.527616241418123 42.381782817348736 0 1 -1
3585 2 0 15.011503244690482 3.9498450652215453 41.99243988306908 0 1 0
812 1 0 15.637295557886743 9.170859137687547 37.077641746098415 0 1 0
4099 2 0 13.693969998329289 6.774543827343852 35.631983421498745 0 -1 0
1059 1 0 10.79272308106576 9.575989223210076 37.210873273657434 1 1 0
2712 2 0 16.465528376650596 6.3898413649036065 35.47296817846314 1 0 0
3740 2 0 15.331153212526074 8.902806172535065 35.369288956196016 -1 0 -2
3171 2 0 13.311902417192515 5.944302219125397 42.443551610197886 0 0 -2
1269 1 0 16.418746977443604 4.709737595471484 35.796923382983735 0 1 0
1061 1 0 16.649802712984282 3.8369399894096716 42.455705125564855 0 0 0
1022 1 0 12.206365827791988 7.546813938776982 35.25336547017989 1 0 -1
2048 2 0 20.315453070365542 6.588024855184781 39.910856608943476 -1 1 0
2966 2 0 17.731397714410278 4.156058434435828 36.62956175176249 0 0 0
1748 2 0 19.55882709359031 8.964800139179115 39.87276185497853 0 1 -1
144 1 0 20.860913860820684 8.09769531530642 40.249896712444745 0 1 0
178 1 0 18.0153424724183 8.72302243297285 40.338089928668616 0 0 0
505 1 0 18.286992463759105 4.069742073528442 38.131371931192 0 0 -1
2634 2 0 22.039700466032524 8.170103155473253 39.13758425241779 0 0 -1
349 1 0 20.8787977766967 5.622992591071544 38.65140742372851 0 0 -1
3804 2 0 21.61888198003663 8.839518385337637 41.560542912100125 0 2 -1
3352 2 0 19.7929517346581 4.324460999790112 38.500067254134905 0 2 -1
2746 2 0 18.015669576831133 8.820492306681704 41.97185012253056 0 1 0
2455 2 0 20.724242381312052 6.306756093656677 37.19627191382202 0 1 -1
2046 2 0 21.659928545859344 5.268258839752324 42.11525347684028 1 1 -1
3975 2 0 22.227540454408423 5.099093467388798 39.44707871251515 0 1 0
2954 2 0 22.3638204544797 4.685982445375441 36.32943553974015 1 0 0
1653 2 0 21.978532870720613 9.470835513140933 36.932831460266854 0 1 -1
1097 1 0 22.71519201695681 5.157759306291656 40.947360482216965 -1 0 0
1198 1 0 16.93782506138168 5.773083355267506 40.241945948134195 0 0 -1
4490 2 0 17.17837553490675 5.303412481857208 41.71618164786731 0 0 0
149 1 0 21.272638697089267 5.832707203459012 35.70200785292602 1 0 -1
3434 2 0 17.292230637971908 7.2397402938076745 39.740133718162575 0 0 0
247 1 0 22.493785394288675 9.553439565640385 38.44988852770379 0 0 1
2129 2 0 17.206202234023447 4.615542975135334 39.12627540493729 1 0 -1
4216 2 0 17.24610372925782 9.998616209136959 39.63395370045059 0 1 -1
3362 2 0 17.115538449142186 9.800962860500846 37.18585272822779 0 0 0
167 1 0 8.84377571628079 16.417828921921725 7.580918577072213 0 1 0
4392 2 0 8.620292984597736 13.099347435681306 3.9792100950969007 0 0 0
2557 2 0 5.740932712039916 14.778143568188455 4.4255797058775475 1 1 0
1315 1 0 9.368777079794357 11.042673413326888 7.896038035750317 1 0 1
3576 2 0 4.715900370800027 14.82975380072557 9.808113275246964 0 0 0
3848 2 0 9.128857267638491 14.834142157434588 7.7681680181608 1 0 1
1842 2 0 6.375115814868719 11.799207878143552 4.870020985560308 1 1 0
2436 2 0 8.365586752045266 11.345844913688072 6.628608543159277 0 1 0
1784 2 0 5.858002766152703 11.699176258967928 7.527823539316041 1 1 1
1448 1 0 6.793462273165653 11.219435958014348 6.291262044903812 0 0 0
1258 1 0 4.404041577213109 11.31748673329463 8.024279384606771 0 1 1
1122 1 0 4.135604395836887 14.469620686853652 4.550733834596209 1 0 0
1320 1 0 5.306240936385265 16.313104634842844 10.487194028230899 0 -1 1
4028 2 0 3.761118099434993 12.368741961261627 9.118986468516521 1 1 0
4261 2 0 9.477088662897252 15.961877974891287 11.167312876736494 0 -1 1
3442 2 0 8.14930733345339 15.745551107131874 3.62260014862179 0 0 2
2521 2 0 18.565521514259082 35.74363602282559 4.493917045961423 1 -1 1
157 1 0 6.561026141102996 16.01803608109816 3.648647766995312 0 0 1
2943 2 0 6.832786108756604 16.211067391967667 11.089881531477602 0 0 0
3691 2 0 9.977562935319769 12.391674130301634 8.462196145079265 0 0 1
1630 2 0 3.6882391544005513 13.218419690579239 5.582370113722684 -1 0 0
3897 2 0 8.481805163103893 10.114229839168036 8.928199383547451 0 0 0
2771 2 0 10.651437016469128 10.21884813531912 7.265725443188401 1 1 0