LAMMPS data file via write_data, version 2 Aug 2023, timestep = 4701751, units = real

4500 atoms
2 atom types

3.313954411528279 43.066346886249605 xlo xhi
3.313954411528279 43.066346886249605 ylo yhi
3.313954411528279 43.066346886249605 zlo zhi

Masses

1 28.086
2 15.9994

Atoms # charge

1047 1 0 7.781085443904033 8.537206081613055 6.139662071564176 1 0 0
3433 2 0 8.251650704267774 8.234354913520257 7.729277557476844 1 1 0
3065 2 0 7.063314472051569 7.188448750710924 5.541245438896199 1 0 1
1367 1 0 6.188457712960817 6.002965395187948 6.260780932222998 1 0 0
2831 2 0 5.341376504204394 6.243288329516882 10.298610220965575 0 1 1
305 1 0 4.874487240545253 5.783678768905335 8.813054845095817 0 0 1
3761 2 0 6.040279353448833 6.413397127308685 7.816262054057739 1 0 0
1829 2 0 8.842037342368064 8.822843331469432 4.922502183769338 0 2 1
3956 2 0 4.940572231192992 4.221220527859803 8.793173556535987 2 1 0
2459 2 0 6.919519953522416 4.542643266051236 6.350324534558135 0 1 1
2887 2 0 4.725290135284016 5.6830957508095405 5.616256956508458 0 0 1
2095 2 0 6.244715760999265 8.703737912475951 9.533978369920284 2 0 1
16 1 0 7.802531458125263 9.026094855276177 9.13426231794725 0 0 1
3242 2 0 8.746409388506017 8.45356937313015 10.37405375995804 0 1 0
1092 1 0 3.8089451650181827 4.375245190518882 5.420440067874388 0 1 0
3970 2 0 3.928814150387716 8.531905076216677 10.761633415166102 2 1 1
107 1 0 5.39845143327846 7.846570371649271 10.74400192744675 1 1 0
1797 2 0 7.6001553954645535 3.776674189695782 9.161762431279424 0 2 0
2679 2 0 6.810975944289779 9.825680972649117 6.42039673563189 1 0 1
1143 1 0 9.533709216418597 7.05903502849522 10.850894523072393 1 1 1
3987 2 0 6.662076259080165 4.073618604464771 3.7283384691858243 0 1 0
179 1 0 9.34147471141625 8.128344653881355 3.5684480688516786 1 1 0
3483 2 0 3.468852277128731 6.542486557424037 8.52196792501449 0 0 1
651 1 0 7.29091710292815 3.537749200364523 5.12821988831918 0 0 0
157 1 0 6.3772735256542825 16.077580569191454 3.457305648396868 0 0 1
3055 2 0 4.0959265056483085 3.662881341062817 3.9502155820130547 0 1 2
2089 2 0 9.915072127555536 4.45539253400442 7.950570710489525 1 1 1
4014 2 0 20.621138823264594 20.138563577927382 7.181859004450319 1 0 1
3432 2 0 10.347147802547173 6.547135160406687 9.528316461730462 0 0 0
4276 2 0 11.453425418395907 6.557702199894666 7.0580170115113 1 1 1
997 1 0 12.792746077500869 7.4078917592579065 6.666850284431796 0 0 0
3488 2 0 14.32121768141364 6.65291621368277 7.038928552345448 1 2 0
3368 2 0 12.641081558063592 8.899486065689683 7.3597420287624535 1 1 1
2528 2 0 12.92934769326576 7.672059883117829 5.098133210200156 0 1 1
3910 2 0 12.311114648905601 4.897521642022316 8.971387442382312 2 1 0
1378 1 0 11.026138351676611 5.559157680552052 8.26687791465191 1 0 0
581 1 0 15.457966139253525 6.399127896188157 5.939957147547942 1 1 0
1663 2 0 15.095409973064202 5.277690754916192 4.794231253839743 1 0 0
2313 2 0 15.71276218351517 7.827123492888174 5.101155990749636 -1 1 1
1235 1 0 13.162543746143507 5.257762683221738 10.340702443182586 0 0 1
2151 2 0 14.669478841128289 4.691454359251855 10.317004111398347 0 -1 0
175 1 0 12.219854271232764 7.154841464737418 3.7298455287038186 -1 0 0
2140 2 0 13.023625850462134 6.876243001284291 10.46801210120033 0 1 0
1414 1 0 15.441398407755411 3.63288934520415 9.302897640256473 -1 0 0
1721 2 0 10.588043447017526 7.232237393854508 3.962366167787593 0 0 1
3366 2 0 16.158775852662565 4.457583143676549 8.14589126964293 1 0 0
150 1 0 16.438416950722697 9.180404325344263 5.711913900085475 0 0 0
4486 2 0 16.569879279681558 8.92648561497137 7.2939895137469195 0 1 0
3279 2 0 22.837920561072963 3.3363869735904217 8.950859963161783 1 0 0
3171 2 0 12.502636075026492 5.538577999427417 3.4660168151123067 0 0 -1
3936 2 0 3.406894021442996 11.00035606794451 6.633972826313276 1 0 -1
4462 2 0 16.93748930018522 6.074334369722136 6.538587223171698 1 1 1
3645 2 0 22.20052726377478 8.607054944019644 4.318467628440418 0 0 0
2971 2 0 17.001986970492126 9.386731561153734 9.820034982617596 0 1 1
1957 2 0 22.373829206925247 5.846216710823847 4.565366700305185 0 0 1
2306 2 0 17.50139251428238 6.845552971274259 8.961252896412919 0 0 0
2380 2 0 21.1155059643192 5.348075178857761 9.120959517728586 0 1 0
125 1 0 19.9570275621937 4.23416925928524 9.2084075994918 1 0 0
90 1 0 17.44607403055194 5.481084294056448 7.940920997530792 0 0 0
2446 2 0 18.84893505792842 4.674062130195058 8.01013560965188 0 0 0
1301 1 0 17.451465162400314 8.408435319731169 8.595341471338912 -1 1 0
4144 2 0 18.971638651588677 8.65832248987241 8.00417453280124 0 0 0
3918 2 0 17.873995074043556 9.197697228244742 4.919617951938063 0 0 0
1291 1 0 22.605576812409293 5.635211512611164 9.756634888221134 0 0 0
2868 2 0 19.234063990242454 4.516866490745738 10.638951623982248 1 1 1
3229 2 0 22.38100104252266 7.285243687336241 10.268197649198218 -1 1 0
4443 2 0 20.244874690544727 9.035373861299785 10.414428360325555 0 0 1
4253 2 0 21.707749051408037 9.229013945239998 8.2404318887197 0 0 -1
1352 1 0 20.12163240724809 9.425545504072915 8.828415400755715 1 0 0
1196 1 0 22.78457487201804 4.297517560952574 4.791759189820527 0 0 1
2997 2 0 21.47915208387202 3.3995853871998194 4.830711193191962 1 1 1
2251 2 0 22.754769593547678 4.860857386165088 11.180258584992707 0 0 0
568 1 0 18.112418939855793 9.960770054475457 3.5038159725231863 1 0 0
4028 2 0 3.314401927171986 12.932844722233394 8.47233050137088 1 1 0
4261 2 0 9.50588696452171 15.973574233834343 10.72310513158316 0 -1 1
1122 1 0 3.9231378404996393 14.521478120053391 4.374009646380787 1 0 0
3897 2 0 8.277709937202621 10.634134530218665 8.94149402923325 0 0 0
2985 2 0 4.41050253902961 10.750065294386633 9.25982106864368 0 0 0
1258 1 0 4.19106551145903 11.647752029601802 7.9258199414926365 0 1 1
1448 1 0 6.686326491451453 11.44752144749486 6.332498531137274 0 0 0
1784 2 0 5.605318672472036 12.14812608455296 7.3478199023733834 1 1 1
2436 2 0 8.186408458323232 11.911531889105643 6.674253444377289 0 1 0
1842 2 0 6.252321363857597 11.921353473866906 4.84059550227475 1 1 0
3848 2 0 8.94485763840369 14.97551269092635 7.647980198251322 1 0 1
3576 2 0 4.749814445990227 15.251771555471706 9.231059494014687 0 0 0
1315 1 0 9.234495131078186 11.376890861671654 7.853704671054316 1 0 1
2557 2 0 5.493033441298446 15.016851351493338 4.320049162141888 1 1 0
4392 2 0 8.395446924946565 13.250989973813446 3.9267875533354832 0 0 0
379 1 0 7.092211220327518 12.393722128770996 3.5023087877295787 1 0 1
3442 2 0 7.974728420291371 15.792986580245692 3.5047570304361817 0 0 2
3691 2 0 10.109033006958985 12.695994596859547 8.379895600396829 0 0 1
2943 2 0 6.801126086268498 16.17991827934971 10.726958802962637 0 0 0
4164 2 0 3.4435144072838284 13.744492905597882 11.056193009116866 2 0 0
1985 2 0 17.19382965530916 4.330197136136788 3.3166847818869916 0 0 1
650 1 0 3.474808348479806 14.20734748753457 9.469427887933005 0 0 1
1802 2 0 19.317489256238193 20.860442708939466 4.946934124490582 -1 0 2
2771 2 0 10.38580210521415 10.336906404626706 7.285249205731095 1 1 0
1262 1 0 10.336584421042094 14.118269508334206 7.673619540251696 1 0 0
3577 2 0 10.614427204828015 13.758322526036462 6.106741096822739 0 0 0
2408 2 0 15.56519611951475 10.511863332984014 5.340570655281933 0 1 2
734 1 0 11.975498569913233 10.260463124736667 6.711770510475562 1 0 0
2789 2 0 12.134554089604906 10.443186954212823 5.086053649831169 0 0 1
394 1 0 11.511258267015501 14.35388493611956 4.831709830365854 0 0 0
4113 2 0 12.806625913664012 11.577247775750063 7.338437260131933 0 0 1
3942 2 0 12.030507519099581 10.8705525137877 9.640972105571546 1 -1 1
3386 2 0 14.631642499913886 10.763410797389643 9.224512092285924 1 0 0
1997 2 0 11.38780841668387 15.068380321046659 8.456606520965558 0 0 0
891 1 0 13.267270599319145 11.69440738980053 8.904119798303437 0 0 1
3464 2 0 13.980214585131357 15.590891789138688 8.200438679156406 0 0 1
4137 2 0 13.363226017936679 13.269218903070719 9.306501483636755 0 0 0
1341 1 0 12.835938622501361 14.869903501773923 9.14527447245959 1 0 0
3656 2 0 13.022513331886644 15.674151225703401 10.549756792998018 0 0 0
992 1 0 15.5925844363059 15.5884704983706 8.639737145364247 1 1 0
4225 2 0 12.272939462758009 15.725957087016663 5.308608656763816 1 -1 0
1472 1 0 12.541155752592424 11.578515290175478 3.940416741383918 0 1 1
3044 2 0 12.555589376972426 13.15918670948853 4.5075909845130635 0 0 0
1031 1 0 16.22368286661733 10.76609617107508 9.562936333985402 0 0 0
1076 1 0 15.513580093066054 11.353714482921625 3.95278610008293 0 1 1
2653 2 0 16.03925063034235 12.826853765035704 4.236999972757926 0 0 1
4413 2 0 16.211466378130865 15.026830356579845 5.694386962960715 1 -1 0
3489 2 0 15.490300473898504 16.18815184158915 10.125110852383926 1 1 0
1742 2 0 10.540324800552943 14.828517928533298 3.5576018731695487 0 1 0
2357 2 0 16.222823552068277 14.084841573141212 8.522199495759095 2 1 2
3480 2 0 16.32654081387248 11.720541748334856 10.932419060544877 0 0 1
1167 1 0 18.648456749801678 20.419584300448943 3.4490503253072062 0 0 0
3348 2 0 20.635868397459532 22.656407716730612 6.373140542044203 -1 -1 0
1996 2 0 23.015759060671826 10.874308852946676 9.953570159730997 0 0 0
4273 2 0 18.83727327357289 11.330239998017136 3.937973882205278 0 0 0
2266 2 0 17.04610730071029 11.528674578795039 8.419500752113382 0 0 1
602 1 0 17.089567655669498 13.780657879888972 4.997307889758464 -1 0 0
2478 2 0 22.666316320890964 13.982393326939734 6.618091626371984 0 -1 1
2448 2 0 21.984483038491906 14.579175501095744 4.121813895151746 -1 1 1
406 1 0 20.11382642307574 12.528223388995123 9.34903626983094 0 0 0
4399 2 0 18.73118477300043 13.433604799432581 8.950826181384832 0 0 0
1908 2 0 19.749099370382233 11.033343865844248 8.74200241780223 -1 0 0
2977 2 0 17.678692714045333 13.08923060420902 6.339518169296989 0 0 0
1433 1 0 17.485801829537237 13.03809899439898 8.025537843219599 0 1 0
3744 2 0 21.450828630121055 13.32054416722557 8.816624696747382 1 0 2
2208 2 0 20.219666747836403 14.998407636399069 5.959904070502931 0 0 -1
1572 2 0 20.777461406651643 12.514229778322164 5.24623564668449 0 0 0
654 1 0 21.40706653458099 13.981525170067833 5.567938494522057 0 0 0
3413 2 0 18.046809744779296 14.53623238355512 3.9423242289387206 0 0 0
1147 1 0 22.837003934932234 13.17513747497529 8.028027531258267 0 0 0
4161 2 0 20.438911174939626 12.37020268185555 10.937526605242564 1 0 0
848 1 0 20.335537446522945 11.881244144909372 3.848011387245134 -1 0 1
673 1 0 19.712570995575987 16.45145005352157 5.497895568270364 0 0 0
3578 2 0 16.556873375112755 16.54807348782773 7.71411124939759 0 0 0
786 1 0 16.626120168682526 16.579055940183174 6.056693372720597 -1 0 -1
1033 1 0 23.05678332935152 10.235164543331447 8.466263414689335 0 0 0
167 1 0 8.649799407413639 16.52872275570962 7.371396485495785 0 1 0
1320 1 0 5.323230397532025 16.50488071658375 10.08587807838207 0 -1 1
4193 2 0 7.383418368596104 16.812862529323716 6.366407234550872 0 0 1
2224 2 0 8.11726392438166 17.20367604867949 8.806763490435493 0 0 0
867 1 0 8.248616759932817 16.927566695860918 10.396471779802077 1 0 1
374 1 0 6.290697152384522 21.20025599872111 10.711063819935648 1 0 0
2283 2 0 7.60830413102927 20.600470880431676 9.945252605308706 1 0 0
4044 2 0 5.7434277820009 22.619234381629045 10.001400204756969 1 0 1
3752 2 0 6.067873351075059 17.480327608243606 4.222267810480617 2 1 1
131 1 0 4.1975433299964475 21.251559089493817 7.013932048003039 -1 1 0
3709 2 0 6.569802875340894 20.822587356607418 4.208197749958952 1 0 1
561 1 0 8.937558041802784 19.79828768357921 10.305301274453667 0 1 1
757 1 0 4.343162393761805 19.308554153971365 9.538629429585502 1 1 0
1893 2 0 5.265474663831768 17.964730410683334 9.280908969178803 0 1 1
518 1 0 7.086788357524151 18.067894984460395 5.326867960966538 0 1 0
4469 2 0 6.689825071718209 19.36769133149376 6.270385382515917 1 0 1
2362 2 0 5.704621330979995 21.7167707423593 6.463200981370478 1 -1 1
1809 2 0 8.593536979851464 21.220680699219194 6.005367966990039 0 0 0
294 1 0 6.956536665450717 20.902113223190877 5.800854096983725 1 0 0
3800 2 0 8.368687621516038 18.603582493892873 4.430932191670274 1 1 0
3392 2 0 5.138262256015364 20.005067136280434 10.79389637307641 2 -1 1
2240 2 0 4.291582628890083 20.585350481038393 8.476049716163164 0 0 0
3118 2 0 4.2964258264024195 22.09732005090598 3.998663383559177 0 0 1
4157 2 0 3.7631115750091118 20.087801994845215 5.92666726973332 0 1 0
2290 2 0 8.474648583016936 18.41827575702373 11.063559720756285 0 0 0
4267 2 0 3.916813162462305 19.699781729514967 3.400515339497042 1 0 0
1450 1 0 9.856519007196571 18.705936701151558 3.757951583863763 0 0 0
2438 2 0 9.654340598389108 19.355664854692204 8.881353721996433 0 0 0
3659 2 0 9.914584929037359 17.52038804013325 6.929065556183491 0 0 0
1380 1 0 9.134028360218075 3.391528849718952 8.965317749283882 0 1 0
4094 2 0 10.339339087965364 20.178926011257463 4.364915884068466 1 0 0
2685 2 0 12.458634245489582 22.984446102140762 8.614547622135374 0 -1 0
45 1 0 10.213002850498825 21.02484584250571 5.776252567583649 1 0 1
2239 2 0 10.172068929055797 20.609302716592254 11.022594323317467 0 0 1
1005 1 0 14.244622524124445 16.691447507704726 11.084972006196647 0 0 1
133 1 0 15.750869100887208 22.74834019710014 6.951371607686559 0 1 1
4395 2 0 10.922599320402137 17.521663188952513 4.036146633381204 1 0 1
2662 2 0 14.342743824866131 22.41443720342367 10.342207589488243 0 1 1
1240 1 0 15.89587121438384 21.040748791327893 4.480537904635942 0 0 0
1481 1 0 12.37036457341467 17.19442830837347 4.549429621425669 1 -1 1
3332 2 0 11.033529904342698 20.11222927962237 6.870873469866719 0 -1 0
2545 2 0 10.802631238622045 22.540913447754104 5.780054817286585 0 1 1
2643 2 0 13.014989813000849 20.412335155908067 9.26767455074138 1 0 0
357 1 0 10.73535515774422 18.71732364631982 7.794928923923119 0 0 1
2982 2 0 14.46702142293171 18.727907199908117 7.7839605322518395 0 1 1
4061 2 0 14.027808823137656 18.222697695608673 10.47950964021842 0 1 0
4496 2 0 12.879617741277459 18.22570247064031 5.689511165661442 0 0 0
2973 2 0 14.896892167393384 21.656957661487752 7.808394199630707 0 0 1
814 1 0 13.695346821998141 21.87453543677039 8.953402622936771 0 0 0
2321 2 0 14.738142346501617 20.219719531320862 5.347561225183302 0 0 0
4187 2 0 15.52241674796995 17.67874984592079 5.528061611901624 1 0 1
1800 2 0 12.0099710262987 18.179793095412286 8.679378345390127 0 1 1
459 1 0 13.453289051621676 18.875891407876935 9.05498709517629 0 1 0
1000 1 0 14.428149420217661 18.72401468629937 6.099552695485638 1 0 1
4026 2 0 16.561673549793404 22.062163923122057 5.673071780215236 -1 0 0
4470 2 0 13.55944707758481 17.06403286550174 3.4831923171100847 0 1 -1
331 1 0 22.979579092139872 18.27214621861554 4.068209437713389 1 1 1
407 1 0 19.733232529370092 21.281515704474067 6.515205284966096 0 0 0
3719 2 0 18.586635847122658 21.723071125522285 7.636525048081447 0 0 -1
1082 1 0 18.11780415089835 22.860341848579832 8.759667025814558 -1 1 0
987 1 0 21.43761960696613 18.749301315456485 6.678606070777646 0 0 1
1744 2 0 18.158925908619196 16.93220294164134 5.647517304515578 0 0 0
3208 2 0 17.068306332612142 20.220110141611404 3.824928835259687 0 0 1
3421 2 0 17.93082873839908 22.115897150422125 10.27803233389782 -1 0 1
1682 2 0 22.69068280783345 18.61486201554824 7.657583175015546 0 0 0
2870 2 0 20.51873920240703 17.408316075822377 6.612482381588542 1 -1 0
1890 2 0 20.37186980503774 16.870148732085198 4.105279497223684 0 0 1
3782 2 0 22.0290400831605 19.081448282802803 5.229618377994695 0 1 0
2398 2 0 22.983034132174193 21.153866799178846 8.581730544233942 0 1 1
532 1 0 11.734652510851562 10.625954019678813 11.203771761738706 0 0 0
3272 2 0 22.91532492084503 11.569842142618725 7.553360873376467 0 1 0
1871 2 0 15.285672747626974 22.1541572615573 3.394962854326463 0 1 0
1478 1 0 23.141139626873176 7.362293950635957 4.850092731215096 0 1 0
1769 2 0 10.014750457037042 3.5199908782910896 10.411934318353072 1 1 0
1061 1 0 15.719148765792117 5.057940465962117 3.339996190664273 0 0 1
3530 2 0 7.773982606357679 6.787377099978631 14.029279119447596 0 0 1
3036 2 0 7.1269872951805695 8.385551284839465 16.212321138595208 1 0 -1
606 1 0 7.21644873682831 6.343936751736331 12.619093707226295 0 0 0
1549 2 0 6.182901319699558 5.104585733753594 12.97390863004078 0 0 1
624 1 0 4.9922366381261565 5.090601805622197 14.130376033035496 0 0 1
4042 2 0 5.688753513779365 5.142169471183462 15.596676682302176 1 0 0
570 1 0 8.059074481065366 8.185286791284305 14.857238852249399 1 0 0
267 1 0 7.296903579746919 8.468720873482132 17.86998910329021 0 0 0
4078 2 0 8.248213441338304 4.705062119052098 16.292823772262615 0 0 1
1391 1 0 6.694905214571847 4.1325607087534735 16.42608882006246 0 0 0
3762 2 0 4.299358134831187 6.569899793976113 13.657243880128895 2 0 0
2629 2 0 6.383160024214852 4.255539893778751 18.02820759618895 0 0 0
4127 2 0 6.298250097215822 7.6024885306332 12.05545140647967 1 1 0
139 1 0 9.556899199982212 4.159734959852709 17.14622431512369 0 -1 0
2676 2 0 5.764897426766829 8.859283683923124 18.53697030138124 0 0 0
2770 2 0 8.558576790074252 9.524089276028953 18.305799400530326 0 0 0
802 1 0 5.053561195082746 4.8612338879427535 18.859738812045133 0 1 1
1977 2 0 7.960869948996447 9.427869095741901 13.838876129057937 0 1 0
1940 2 0 8.003042896310744 7.0588728740052655 18.40953388830573 0 1 1
1185 1 0 4.477118503037355 7.865450755517269 19.025659170840186 1 0 0
3199 2 0 4.018888425618556 3.7408611129206255 14.194608097861577 1 1 0
4236 2 0 5.038888693862859 6.453668229145836 18.469162457753228 0 0 0
1877 2 0 3.713487202095201 4.141446004787702 18.353570795494768 1 0 -1
3140 2 0 8.394219377883212 6.1155079170915325 11.51017697233064 1 0 0
3385 2 0 9.588391010543361 8.08865526439596 15.443825742345016 0 2 1
1371 1 0 9.481083887936984 6.671570328082298 19.01232277805697 0 1 0
4361 2 0 15.93857179266563 23.142349069834218 14.596904554810108 -1 -1 0
424 1 0 11.051018850471369 3.483423586350753 11.760231300773409 0 1 0
2142 2 0 10.005869925833235 5.3992418507372175 18.11015115394303 1 1 0
1417 1 0 10.200874231839464 9.566053262467696 18.24963671158747 1 0 0
3405 2 0 15.25777201812277 5.2359948968213414 16.892592063316833 -1 0 0
2486 2 0 11.822212889978879 5.970885150114015 15.023347610382299 1 1 0
2587 2 0 12.29901552170316 8.520873006964411 14.905966762735298 0 0 0
1135 1 0 12.983842235793459 7.12131726060041 14.586119336725556 -1 0 1
3793 2 0 14.477785737301092 7.200043643275852 15.333742113913939 0 0 -1
2432 2 0 13.211229247597613 7.01011892916781 12.992765438313493 1 0 0
1363 1 0 13.94577719642946 5.189309873260809 17.990780727050947 0 0 -1
1050 1 0 15.83440496483204 6.355405110184929 15.759893448995392 0 0 0
382 1 0 10.838100443731825 9.141513589945134 15.371941150365787 0 1 0
1106 1 0 11.372505041367537 4.355047661157699 14.710497734043159 0 1 0
3126 2 0 12.930430452737106 6.490630793431821 17.716392088458 1 0 1
252 1 0 12.326124243421383 7.710372017007386 11.77000219592036 1 0 0
185 1 0 14.850941423588862 9.182024556518188 18.72501836206895 1 1 1
3521 2 0 13.20300199368926 8.9100388282968 18.59354149634018 -1 1 1
2864 2 0 13.011235437129896 3.8793875036685552 17.692225873060536 0 1 0
2334 2 0 10.569600815910396 7.939317550919851 18.52575500165654 0 1 0
3809 2 0 10.759653686245715 7.363807569631481 11.891556953580519 0 0 0
574 1 0 12.294155067363818 7.587206087293662 18.751972497892147 0 0 1
2844 2 0 15.742755036217451 7.772868768998693 18.717358884643424 1 0 0
4230 2 0 10.69419031103228 3.714935089991962 16.033525664008835 1 2 0
3293 2 0 12.45705108260336 9.317440256115512 11.796062205896257 -1 1 0
2897 2 0 10.629644369528165 3.9865252421718185 13.30479841801153 1 1 1
3969 2 0 12.357998826800634 4.4896969299137774 11.538119861376163 -1 2 0
1664 2 0 10.977228039652363 9.717666279106485 16.85211773333307 0 1 0
3463 2 0 16.607932457448275 5.882653403015118 14.458536596055708 0 0 0
2153 2 0 12.903381048984029 3.737866205711969 14.480857079727382 1 0 -1
1657 2 0 17.08705864299288 7.05296210912627 16.58800732595627 1 0 1
245 1 0 21.504200542497706 4.239179277324446 16.852279113105695 0 0 0
707 1 0 17.249512448271055 7.376760733956425 18.168478986304848 0 1 -1
4312 2 0 18.158533591672168 8.761536972042144 18.387233646925555 -2 1 0
3687 2 0 18.044889452020843 4.237535538451533 12.92630269160831 0 1 0
38 1 0 19.963731436705025 7.372235602946842 13.858161044371798 0 0 0
1771 2 0 21.215811848280588 8.013032270051106 14.724523634461168 0 0 1
4278 2 0 18.887657591540744 8.683003202406478 13.82214469735786 1 0 1
2462 2 0 19.254551245179762 6.093977583310233 14.480749608565718 0 1 1
2743 2 0 20.64223401382142 7.094504292877451 12.33554450787014 1 1 1
1259 1 0 17.989150206148317 5.031881017156934 14.38121373887323 1 0 0
1559 2 0 20.13179973656357 4.632257118936295 17.733134919292617 -1 0 0
4450 2 0 21.019535724307403 3.9639948376653953 15.289601780758638 0 1 0
122 1 0 21.29772823830924 9.417787253132246 15.558211149472351 1 0 -1
2295 2 0 22.359215273642583 9.355886293359198 11.997706111829471 0 0 0
2483 2 0 22.361975153934974 5.662824934928553 17.023676463900664 -1 0 0
4493 2 0 17.673222463893175 3.7502617799575657 15.382356951321214 0 1 1
903 1 0 19.18673523235617 3.5535609479276484 12.014396246971575 0 0 0
2534 2 0 19.90221569064505 9.430450994552483 16.50139365317057 0 1 -1
4422 2 0 18.1847859326382 6.218302270402795 18.953153775312366 0 1 0
2277 2 0 22.667425285121496 9.595428134922827 16.512789714869676 0 1 0
2707 2 0 20.649186831150157 3.534509415192922 12.747924520236603 0 1 0
667 1 0 19.58912438237607 9.430405226491338 18.120150057325215 0 1 0
1084 1 0 19.527282372347198 5.257307737754054 19.12068682104549 0 1 -1
3699 2 0 20.74138467584538 8.562902455604931 18.76127186457084 0 1 0
229 1 0 21.38212741138395 8.116642431194364 11.27831311419558 0 0 0
2386 2 0 20.152329912550137 22.98976459959 11.28860490780281 0 0 0
2439 2 0 5.310614527259071 10.136561437655363 12.920553087746367 0 0 0
218 1 0 3.6773953111919337 10.351296012046468 13.196931102856986 0 0 1
948 1 0 6.7932501620675705 10.632631667293985 13.402436884242055 0 0 0
2951 2 0 5.029161493212377 12.750524048306746 16.46714425811988 1 0 1
3100 2 0 7.620275928781635 11.513159843547552 12.275865392974401 0 0 0
3966 2 0 6.690013281858484 11.389945721673273 14.897410926336205 0 0 -1
685 1 0 8.107998243416345 14.00891608355153 17.996382551054417 0 1 0
4018 2 0 7.597915599197019 13.272386403710371 16.675686136425725 2 0 0
1187 1 0 6.402294758185555 12.808192440996894 15.598805721300481 0 0 1
3905 2 0 6.4013024806139445 14.049352041037592 14.554556499624166 0 0 0
846 1 0 7.263139585721806 15.347186554120107 14.114077884617108 0 0 1
3708 2 0 8.337673469396467 15.115165935149847 12.922963456841723 1 0 0
3766 2 0 4.578314474384434 15.216895187840892 17.167078559556245 1 0 0
2502 2 0 6.9228020973051905 15.153251300581356 18.326465105801606 0 0 0
1170 1 0 9.227038604938064 11.967392293913672 12.119194260442102 0 0 1
1278 1 0 5.71950563662024 16.251114406493485 17.853653583340982 0 0 0
943 1 0 9.614332286969557 14.911534222069946 11.904913340294625 0 1 0
534 1 0 3.857324867772885 13.667980618256435 17.02200560025772 0 0 0
3503 2 0 7.93325694038451 16.065912909566116 15.411837755489223 0 0 0
3338 2 0 9.60781842424696 14.628668563778698 17.781565423400664 0 1 0
2803 2 0 9.646883203816381 12.57244890165612 13.597087030495935 1 1 1
3288 2 0 3.83966355152127 15.085313445323075 13.337417564191917 1 -1 1
1803 2 0 3.378252809734559 11.54486959814553 14.25450508269392 1 0 0
3270 2 0 6.161066204809654 16.481731578867997 13.538465872416138 0 0 0
2936 2 0 3.452612376607878 13.286471248211383 18.5742954722123 0 0 0
4481 2 0 23.17258851996357 3.932991371103198 13.6115671604855 -1 0 0
3166 2 0 9.484830181134647 13.388403239627369 11.280968744964886 0 0 1
2390 2 0 5.829805134269975 19.421860249544064 19.016342678159546 1 0 0
2811 2 0 10.138220718116212 10.749826598553021 11.668563719084887 1 0 1
3906 2 0 15.279450751914759 10.073199433401726 17.372343448415492 0 0 0
3714 2 0 12.245532236854848 12.096177380439519 11.88516296992981 1 0 0
2454 2 0 10.599391491852755 10.36775941531388 14.44419518923308 0 0 0
2280 2 0 10.91816121878051 15.388369605276917 12.798344207980321 0 1 0
1718 2 0 14.525315723183125 11.529479203396264 12.967276400317079 1 0 0
537 1 0 10.716495890222557 13.970346659354949 16.771683451699385 0 0 0
2884 2 0 10.463429134647159 14.769392498497455 15.252112618205418 -1 1 1
2542 2 0 12.207836701196285 14.13425189056077 17.388477665918646 1 1 0
4045 2 0 10.324136060142004 12.446748437567342 16.258646239317024 0 0 0
263 1 0 10.648907790213112 11.979299448890416 14.677543813515628 1 0 0
317 1 0 11.252654287711891 15.803188498442992 14.376994636059194 -1 0 -1
2179 2 0 12.214019263916708 12.560221892216356 14.389417756412655 0 1 0
649 1 0 13.225062228194648 12.54965522161402 13.106972240708531 0 -1 0
1492 1 0 14.242672486799847 15.32586903625829 13.795179215801852 0 -1 0
2168 2 0 15.454212567931753 14.865276943240158 14.775314885845345 0 0 1
3840 2 0 13.877030257352164 13.968739546708612 12.912630622892609 0 -1 0
3581 2 0 15.750405980604567 12.273546139882708 15.689885651121303 1 1 -1
3375 2 0 12.818310716213652 15.475957032838169 14.694208030224445 0 0 0
140 1 0 12.640858212185117 15.328122948050757 18.406314066374993 -1 0 0
2185 2 0 14.344767198289558 15.607865831926672 18.005687462526488 0 0 0
630 1 0 16.108360264363963 11.602765222325038 12.567119958204986 0 0 0
156 1 0 16.327261904543292 11.060343650077627 16.652882233295106 1 0 1
647 1 0 16.41474638722081 13.47769302330202 14.80518632764625 0 0 0
3807 2 0 16.669780714064466 12.92870175028773 13.293922251962409 0 0 0
1079 1 0 17.926329670176045 9.994516669440817 14.249256158376982 0 0 0
1642 2 0 16.814223723347983 10.264526900475662 13.15255639819661 0 0 0
4154 2 0 17.283072928229345 11.85666791732872 17.777343365882217 -1 0 0
3627 2 0 17.24982155770649 10.080138576089075 15.770741960247769 0 0 0
2024 2 0 21.956161964491475 14.508119685985045 11.663402228003038 0 0 1
2393 2 0 22.78493585190789 12.047956990844655 12.198232215849497 0 0 0
1604 2 0 21.266993855233682 10.738811063051433 14.571865249504997 0 1 0
3529 2 0 17.72742561272399 13.98322850535403 15.610978603840719 1 1 1
4001 2 0 21.719640169283817 14.049404940929493 18.170848550857585 -1 0 1
136 1 0 21.0878879697691 13.921917077876335 16.710366074369748 0 0 0
2927 2 0 18.77439499883493 11.3839907393447 14.39064864131798 -1 1 1
737 1 0 20.242339373535785 11.953165167628667 14.609603679767714 -1 1 0
3760 2 0 20.361296443083706 12.589988022680428 16.150174260318046 -1 0 0
3736 2 0 19.849242466764412 15.161407355490786 16.780253981920445 0 0 0
2682 2 0 20.68168485400629 13.035916157871695 13.517944343218918 -1 0 0
14 1 0 21.427643878899122 13.017592277778306 12.03686467168036 0 0 0
3439 2 0 22.40645707172194 14.255280823218946 15.714050396434526 0 1 -1
1486 1 0 18.254612868644017 15.432194127625232 16.301465061887775 0 -1 1
1027 1 0 22.03938426376805 15.842444439371091 12.658697334266614 1 1 1
3202 2 0 20.548632278468883 15.870250495407813 13.451608358503641 0 0 1
2946 2 0 19.45045765832658 10.900680751388586 18.792837017441094 0 0 0
2389 2 0 17.033331140485686 16.004602092578427 17.28351347981811 1 0 1
19 1 0 21.986000988378567 15.502627212414119 18.996774856266196 0 0 1
2823 2 0 19.485006732012177 18.406017879880572 13.449308015226277 0 0 1
40 1 0 18.16623740954384 11.773826965680117 19.15155258356883 1 0 0
2774 2 0 18.49951727881625 16.568546021885943 15.123796318475318 0 0 1
1383 1 0 4.614944348857888 16.50247999725179 13.075787518167509 1 1 1
2723 2 0 22.22003551270997 19.16354491468391 17.108059130385758 0 0 -1
3862 2 0 3.900119692148452 17.69335915769355 13.938437770478197 -1 0 1
4007 2 0 5.816205676984293 22.3908104833083 14.829033477843714 -1 0 0
3455 2 0 6.468403569687958 17.366420274006252 16.90829128057264 1 -1 0
1452 1 0 4.832871680262585 20.33913865158165 18.251867852888704 1 0 0
919 1 0 4.932906166406321 22.418359946653766 16.255526907869893 0 0 -1
1511 2 0 8.667713570306258 21.58762923328257 14.655752064304863 -1 -1 1
3029 2 0 5.312820975833345 20.915295274365022 16.87456651809046 1 0 0
2289 2 0 6.519414645115133 21.55788837719175 12.301043886060237 1 0 0
462 1 0 7.9439362100962505 17.496173620433883 16.28253056748916 0 0 1
2904 2 0 8.192901677156463 18.891111166361238 15.287839436181029 0 0 0
488 1 0 9.038899944642889 20.268890108917958 15.550894249830119 0 -1 0
1920 2 0 9.164161881303055 17.63373383746623 17.460748049317107 0 1 0
383 1 0 9.455373812239724 22.241896797924554 17.71575901765533 0 0 -1
3831 2 0 8.944954817561559 20.824232228675463 17.053505207748415 0 1 -1
516 1 0 5.435050352096027 22.25076644987874 13.267623687814723 0 0 1
2190 2 0 3.9735533370187204 21.617509061457994 12.987771779593029 1 0 1
378 1 0 9.564660217226056 22.633862721695458 13.786496763752044 0 0 1
1921 2 0 4.320747169478221 16.63837881408243 11.33604013627539 1 1 -1
1787 2 0 4.901398018465563 16.74784874538925 19.168849665551804 0 0 0
4171 2 0 12.95266539934043 23.099464572334785 15.158054437236375 0 0 0
3884 2 0 14.426575779168893 16.55127153497925 12.713918927468518 0 0 1
4114 2 0 11.63417281730573 16.609440799156857 18.163564494623195 0 0 -1
1152 1 0 15.531321570809704 16.66892634779268 17.645044173783013 -1 0 1
3562 2 0 10.937837527931789 18.923608309279796 19.035358918586397 1 -1 1
1946 2 0 15.861134672097124 17.725668370913162 18.93461413516613 1 1 0
828 1 0 10.340605248869046 17.48395221864981 18.657857129533593 0 0 1
1548 2 0 10.877486243796486 22.877869929997182 17.142905420674047 1 0 0
1930 2 0 12.859160036190575 21.065991820774865 12.110467869423577 1 0 0
3915 2 0 14.807301103203843 22.799265295628334 17.299054705160433 0 1 1
3995 2 0 10.670037798084454 19.90025451018262 15.396735713130777 0 0 0
3461 2 0 10.800281277979536 21.690458011783303 13.337422688906425 1 1 1
2613 2 0 15.421139963994305 20.361360483576643 18.55526473743418 -2 1 0
2566 2 0 10.811857302410655 17.277370878012306 14.803116807013863 1 0 1
3095 2 0 11.268365596597931 19.0925011676389 12.990470077516132 -1 0 0