LAMMPS (2 Aug 2023 - Update 2)
OMP_NUM_THREADS environment is not set. Defaulting to 1 thread. (src/comm.cpp:98)
  using 1 OpenMP thread(s) per MPI task
units real
atom_style charge
boundary p p p
neighbor 2.0 bin
neigh_modify every 1 delay 0
read_data glass_SiO.structure
Reading data file ...
  orthogonal box = (3.3139544 3.3139544 3.3139544) to (43.066347 43.066347 43.066347)
  1 by 1 by 1 MPI processor grid
  reading atoms ...
  4500 atoms
  reading velocities ...
  4500 velocities
  read_data CPU = 0.036 seconds
timestep 1
variable home_dir string /home/superdelfin/work/Alfred_University/recursive_fracture/fracture_forge
include pot_SiO.FF
mass    1 28.086  #Si
mass    2 15.9994 #O

variable        sw_path string "${home_dir}/../potentials/MahadevanDu/sw_sionah.UNT"
/home/superdelfin/work/Alfred_University/recursive_fracture/fracture_forge/../potentials/MahadevanDu/sw_sionah.UNT
variable        table_path string "${home_dir}/../potentials/MahadevanDu/MGSiOHNa.UNT"
/home/superdelfin/work/Alfred_University/recursive_fracture/fracture_forge/../potentials/MahadevanDu/MGSiOHNa.UNT

pair_style      hybrid/overlay table linear 20000 sw
pair_coeff      * * sw ${sw_path} Si O
pair_coeff      * * sw /home/superdelfin/work/Alfred_University/recursive_fracture/fracture_forge/../potentials/MahadevanDu/sw_sionah.UNT Si O

pair_coeff      1 1 table ${table_path} SiSi 10
pair_coeff      1 1 table /home/superdelfin/work/Alfred_University/recursive_fracture/fracture_forge/../potentials/MahadevanDu/MGSiOHNa.UNT SiSi 10
WARNING: 7605 of 10000 force values in table SiSi are inconsistent with -dE/dr.
WARNING:  Should only be flagged at inflection points (src/pair_table.cpp:466)
pair_coeff      1 2 table ${table_path} OSi 10
pair_coeff      1 2 table /home/superdelfin/work/Alfred_University/recursive_fracture/fracture_forge/../potentials/MahadevanDu/MGSiOHNa.UNT OSi 10
WARNING: 8497 of 10000 force values in table OSi are inconsistent with -dE/dr.
WARNING:  Should only be flagged at inflection points (src/pair_table.cpp:466)

pair_coeff      2 2 table ${table_path} OO 10
pair_coeff      2 2 table /home/superdelfin/work/Alfred_University/recursive_fracture/fracture_forge/../potentials/MahadevanDu/MGSiOHNa.UNT OO 10
WARNING: 7515 of 10000 force values in table OO are inconsistent with -dE/dr.
WARNING:  Should only be flagged at inflection points (src/pair_table.cpp:466)
print "$(dt)"
1
print "$(dt)"
1
thermo 100000
thermo_style custom step temp etotal pe vol density pxx pyy pzz
thermo_modify flush yes
compute stress_pa all stress/atom NULL
compute pe_pa all pe/atom
reset_atoms id
Resetting atom IDs ...
Neighbor list info ...
  update: every = 1 steps, delay = 0 steps, check = yes
  max neighbors/atom: 2000, page size: 100000
  master list distance cutoff = 12
  ghost atom cutoff = 12
  binsize = 6, bins = 7 7 7
  2 neighbor lists, perpetual/occasional/extra = 2 0 0
  (1) pair table, perpetual
      attributes: half, newton on
      pair build: half/bin/atomonly/newton
      stencil: half/bin/3d
      bin: standard
  (2) pair sw, perpetual
      attributes: full, newton on, cut 5
      pair build: full/bin/atomonly
      stencil: full/bin/3d
      bin: standard
velocity all create 300 12345 dist gaussian
print "$(dt)"
1
print "$(dt)"
1
minimize 1.0e-8 1.0e-8 10000 100000
Per MPI rank memory allocation (min/avg/max) = 19.35 | 19.35 | 19.35 Mbytes
   Step          Temp          TotEng         PotEng         Volume        Density          Pxx            Pyy            Pzz      
         0   300           -820554.33     -824577.53      62818.826      2.3824024     -1635.5365      1046.5729      3495.8027    
       114   300           -824685.52     -828708.72      62818.826      2.3824024     -4661.689      -1041.919       1656.8899    
Loop time of 5.4494 on 1 procs for 114 steps with 4500 atoms

99.8% CPU use with 1 MPI tasks x 1 OpenMP threads

Minimization stats:
  Stopping criterion = energy tolerance
  Energy initial, next-to-last, final = 
     -824577.530119336     -828708.713779  -828708.720568501
  Force two-norm initial, final = 2361.4898 4.837888
  Force max component initial, final = 109.4167 0.88866263
  Final line search alpha, max atom move = 0.022770026 0.020234871
  Iterations, force evaluations = 114 228

MPI task timing breakdown:
Section |  min time  |  avg time  |  max time  |%varavg| %total
---------------------------------------------------------------
Pair    | 5.4154     | 5.4154     | 5.4154     |   0.0 | 99.38
Neigh   | 0          | 0          | 0          |   0.0 |  0.00
Comm    | 0.012015   | 0.012015   | 0.012015   |   0.0 |  0.22
Output  | 0          | 0          | 0          |   0.0 |  0.00
Modify  | 0          | 0          | 0          |   0.0 |  0.00
Other   |            | 0.02203    |            |       |  0.40

Nlocal:           4500 ave        4500 max        4500 min
Histogram: 1 0 0 0 0 0 0 0 0 0
Nghost:          14099 ave       14099 max       14099 min
Histogram: 1 0 0 0 0 0 0 0 0 0
Neighs:    1.16462e+06 ave 1.16462e+06 max 1.16462e+06 min
Histogram: 1 0 0 0 0 0 0 0 0 0
FullNghs:       165180 ave      165180 max      165180 min
Histogram: 1 0 0 0 0 0 0 0 0 0

Total # of neighbors = 1164619
Ave neighs/atom = 258.80422
Neighbor list builds = 0
Dangerous builds = 0
info system
print "$(lx)"
39.752392474721325755
info system
info system
info system
print "$(lx)"
39.752392474721325755
print "$(ly)"
39.752392474721325755
print "$(lz)"
39.752392474721325755
print "$(lz)"
39.752392474721325755
variable surface_area equal 790.1263537321404
info system
info system
info system
info system
info system
info system
info system
info system
info system
info system
info system
info system
info system
info system
info system
info system
info system
info system
info system
info system
info system
info system
info system
info system
info system
info system
info system
info system
info system
info system
info system
info system
info system
info system
info system
info system
info system
info system
info system
info system
info system
info system
info system
info system
info system
info system
info system
info system
info system
info system
info system
info system
info system
info system
info system
info system
info system
info system
info system
info system
info system
info system
info system
info system
info system
info system
info system
info system
info system
info system
info system
info system
info system
info system
info system
info system
info system
info system
info system
info system
info system
info system
info system
info system
info system
info system
info system
info system
info system
info system
info system
info system
info system
info system
info system
info system
info system
info system
info system
info system
info system
info system
info system
info system
info system
info system
info system
info system
info system
info system
info system
info system
info system
info system
info system
info system
info system
info system
info system
info system
info system
info system
info system
info system
info system
info system
info system
info system
info system
info system
info system
info system
info system
info system
info system
info system
info system
info system
info system
info system
info system
info system
info system
info system
info system
info system
info system
info system
info system
info system
info system
info system
info system
info system
info system
info system
info system
info system
info system
info system
info system
info system
info system
info system
info system
info system
info system
info system
info system
info system
info system
info system
info system
info system
info system
info system
info system
info system
info system
info system
info system
info system
info system
info system
info system
info system
info system
info system
info system
info system
info system
info system
info system
info system
info system
info system
info system
info system
info system
info system
info system
info system
info system
info system
info system
info system
info system
info system
info system
info system
info system
info system
info system
info system
info system
info system
info system
info system
info system
info system
info system
info system
info system
info system
info system
info system
info system
info system
info system
info system
info system
info system
info system
info system
info system
info system
info system
info system
info system
info system
info system
info system
info system
info system
info system
info system
info system
info system
info system
info system
info system
info system
info system
info system
info system
info system
info system
info system
info system
info system
info system
info system
info system
info system
info system
info system
info system
info system
info system
info system
info system
info system
info system
info system
info system
info system
info system
info system
info system
info system
info system
info system
info system
info system
info system
info system
info system
info system
info system
info system
info system
info system
info system
info system
info system
info system
info system
info system
info system
info system
info system
info system
info system
info system
info system
info system
info system
info system
info system
info system
info system
info system
info system
info system
info system
info system
info system
info system
info system
info system
info system
info system
info system
info system
info system
info system
info system
info system
info system
info system
info system
info system
info system
info system
info system
info system
info system
info system
info system
info system
info system
info system
info system
info system
info system
info system
info system
info system
info system
info system
info system
info system
info system
info system
info system
info system
info system
info system
info system
info system
info system
info system
info system
info system
info system
info system
info system
info system
info system
info system
info system
info system
info system
info system
info system
info system
info system
info system
info system
info system
info system
info system
info system
info system
info system
info system
info system
info system
info system
info system
info system
info system
info system
info system
info system
info system
info system
info system
info system
info system
info system
info system
info system
info system
info system
info system
info system
info system
info system
info system
info system
info system
info system
info system
info system
info system
info system
info system
info system
info system
info system
info system
info system
info system
info system
info system
info system
info system
info system
info system
info system
info system
info system
info system
info system
info system
info system
info system
info system
info system
info system
info system
info system
info system
info system
info system
info system
info system
info system
info system
info system
info system
info system
info system
info system
info system
info system
info system
info system
info system
info system
info system
info system
info system
info system
info system
info system
info system
info system
info system
info system
info system
info system
info system
info system
info system
info system
info system
info system
info system
info system
info system
info system
info system
info system
info system
info system
info system
info system
info system
info system
info system
info system
info system
info system
info system
info system
info system
info system
info system
info system
info system
info system
info system
info system
info system
info system
info system
info system
info system
info system
info system
info system
info system
info system
info system
info system
info system
info system
info system
info system
info system
info system
info system
info system
info system
info system
info system
info system
info system
info system
info system
info system
info system
info system
info system
info system
info system
info system
info system
info system
info system
info system
info system
info system
info system
info system
info system
info system
info system
info system
info system
info system
info system
info system
info system
info system
info system
info system
info system
info system
info system
info system
info system
info system
info system
info system
info system
info system
info system
info system
info system
info system
info system
info system
info system
info system
info system
info system
info system
info system
info system
info system
info system
info system
info system
info system
info system
info system
info system
info system
info system
info system
info system
info system
info system
info system
info system
info system
info system
info system
info system
info system
info system
info system
info system
info system
info system
info system
info system
info system
info system
info system
info system
info system
info system
info system
info system
info system
info system
info system
info system
info system
info system
info system
info system
info system
info system
info system
info system
info system
info system
info system
info system
info system
info system
info system
info system
info system
info system
info system
info system
info system
info system
info system
info system
info system
info system
info system
info system
info system
info system
info system
info system
info system
info system
info system
info system
info system
info system
info system
info system
info system
info system
info system
info system
info system
info system
info system
info system
info system
info system
info system
info system
info system
info system
info system
info system
info system
info system
info system
info system
info system
info system
info system
info system
info system
info system
info system
info system
info system
info system
info system
info system
info system
info system
info system
info system
info system
info system
info system
info system
info system
info system
info system
info system
info system
info system
info system
info system
info system
info system
info system
info system
info system
info system
info system
info system
info system
info system
info system
info system
info system
info system
info system
info system
info system
info system
info system
info system
info system
info system
info system
info system
info system
info system
info system
info system
info system
info system
info system
info system
info system
info system
info system
info system
info system
info system
info system
info system
info system
info system
info system
info system
info system
info system
info system
info system
info system
info system
info system
info system
info system
info system
info system
info system
info system
info system
info system
info system
info system
info system
info system
info system
info system
info system
info system
info system
info system
info system
info system
info system
info system
info system
info system
info system
info system
info system
info system
info system
info system
info system
info system
info system
info system
info system
info system
info system
info system
info system
info system
info system
info system
info system
info system
info system
info system
info system
info system
info system
info system
info system
info system
info system
info system
info system
info system
info system
info system
info system
info system
info system
info system
info system
info system
info system
info system
info system
info system
info system
info system
info system
info system
info system
info system
info system
info system
info system
info system
info system
info system
info system
info system
info system
info system
info system
info system
info system
info system
info system
info system
info system
info system
info system
info system
info system
info system
info system
info system
info system
info system
info system
info system
info system
info system
info system
info system
info system
info system
info system
info system
info system
info system
info system
info system
info system
info system
info system
info system
info system
info system
info system
info system
info system
info system
info system
info system
info system
info system
info system
info system
info system
info system
info system
info system
info system
info system
info system
info system
info system
info system
info system
info system
info system
info system
info system
info system
info system
info system
info system
info system
info system
info system
info system
info system
info system
info system
info system
info system
info system
info system
info system
info system
info system
info system
info system
info system
info system
info system
info system
info system
info system
info system
info system
info system
info system
info system
info system
info system
info system
info system
info system
info system
info system
info system
info system
info system
info system
info system
info system
info system
info system
info system
info system
info system
info system
info system
info system
info system
info system
info system
info system
info system
info system
info system
info system
info system
info system
info system
info system
info system
info system
info system
info system
info system
info system
info system
info system
info system
info system
info system
info system
info system
info system
info system
info system
info system
info system
info system
info system
info system
info system
info system
info system
info system
info system
info system
info system
info system
info system
info system
info system
info system
info system
info system
info system
info system
info system
info system
info system
info system
info system
info system
info system
info system
info system
info system
info system
info system
info system
info system
info system
info system
info system
info system
info system
info system
info system
info system
info system
info system
info system
info system
info system
info system
info system
info system
info system
info system
info system
info system
info system
info system
info system
info system
info system
info system
info system
info system
info system
info system
info system
info system
info system
info system
info system
info system
info system
info system
info system
info system
info system
info system
info system
info system
info system
info system
info system
info system
info system
info system
info system
info system
info system
info system
info system
info system
info system
info system
info system
info system
info system
info system
info system
info system
info system
info system
info system
info system
info system
info system
info system
info system
info system
info system
info system
info system
info system
info system
info system
info system
info system
info system
info system
info system
info system
info system
info system
info system
info system
info system
info system
info system
info system
info system
info system
info system
info system
info system
info system
info system
info system
info system
info system
info system
info system
info system
info system
info system
info system
info system
info system
info system
info system
info system
info system
info system
info system
info system
info system
info system
info system
info system
info system
info system
info system
info system
info system
info system
info system
info system
info system
info system
info system
info system
info system
info system
info system
info system
info system
info system
info system
info system
info system
info system
info system
info system
info system
info system
info system
info system
info system
info system
info system
info system
info system
info system
info system
info system
info system
info system
info system
info system
info system
info system
info system
info system
info system
info system
info system
info system
info system
info system
info system
info system
info system
info system
info system
info system
info system
info system
info system
info system
info system
info system
info system
info system
info system
info system
info system
info system
info system
info system
info system
info system
info system
info system
info system
info system
info system
info system
info system
info system
info system
info system
info system
info system
info system
info system
info system
info system
info system
info system
info system
info system
info system
info system
info system
info system
info system
info system
info system
info system
info system
info system
info system
info system
info system
info system
info system
info system
info system
info system
info system
info system
info system
info system
info system
info system
info system
info system
info system
info system
info system
info system
info system
info system
info system
info system
info system
info system
info system
info system
info system
info system
info system
info system
info system
info system
info system
info system
info system
info system
info system
info system
info system
info system
info system
info system
info system
info system
info system
info system
info system
info system
info system
info system
info system
info system
info system
info system
info system
info system
info system
info system
info system
info system
info system
info system
info system
info system
info system
info system
info system
info system
info system
info system
info system
info system
info system
info system
info system
info system
info system
info system
info system
info system
info system
info system
info system
info system
info system
info system
info system
info system
info system
info system
info system
info system
info system
info system
info system
info system
info system
info system
info system
info system
info system
info system
info system
info system
info system
info system
info system
info system
info system
info system
info system
info system
info system
info system
info system
info system
info system
info system
info system
info system
info system
info system
info system
info system
info system
info system
info system
info system
info system
info system
info system
info system
info system
info system
info system
info system
info system
info system
info system
info system
info system
info system
info system
info system
info system
info system
info system
info system
info system
info system
info system
info system
info system
info system
info system
info system
info system
info system
info system
info system
info system
info system
info system
info system
info system
info system
info system
info system
info system
info system
info system
info system
info system
info system
info system
info system
info system
info system
info system
info system
info system
info system
info system
info system
info system
info system
info system
info system
info system
info system
info system
info system
info system
info system
info system
info system
info system
info system
info system
info system
info system
info system
info system
info system
info system
info system
info system
info system
info system
info system
info system
info system
info system
info system
info system
info system
info system
info system
info system
info system
info system
info system
info system
info system
info system
info system
info system
info system
info system
info system
info system
info system
info system
info system
info system
info system
info system
info system
info system
info system
info system
info system
info system
info system
info system
info system
info system
info system
info system
info system
info system
info system
info system
info system
info system
info system
info system
info system
info system
info system
info system
info system
info system
info system
info system
info system
info system
info system
info system
info system
info system
info system
info system
info system
info system
info system
info system
info system
info system
info system
info system
info system
info system
info system
info system
info system
info system
info system
info system
info system
info system
info system
info system
info system
info system
info system
info system
info system
info system
info system
info system
info system
info system
info system
info system
info system
info system
info system
info system
info system
info system
info system
info system
info system
info system
info system
info system
info system
info system
info system
info system
info system
info system
info system
info system
info system
info system
info system
info system
info system
info system
info system
info system
info system
info system
info system
info system
info system
info system
info system
info system
info system
info system
info system
info system
info system
info system
info system
info system
info system
info system
info system
info system
info system
info system
info system
info system
info system
info system
info system
info system
info system
info system
info system
info system
info system
info system
info system
info system
info system
info system
info system
info system
info system
info system
info system
info system
info system
info system
info system
info system
info system
info system
info system
info system
info system
info system
info system
info system
info system
info system
info system
info system
info system
info system
info system
info system
info system
info system
info system
info system
info system
info system
info system
info system
info system
info system
info system
info system
info system
info system
info system
info system
info system
info system
info system
info system
info system
info system
info system
info system
info system
info system
info system
info system
info system
info system
info system
info system
info system
info system
info system
info system
info system
info system
info system
info system
info system
info system
info system
info system
info system
info system
info system
info system
info system
info system
info system
info system
info system
info system
info system
info system
info system
info system
info system
info system
info system
info system
info system
info system
info system
info system
info system
info system
info system
info system
info system
info system
info system
info system
info system
info system
info system
info system
info system
info system
info system
info system
info system
info system
info system
info system
info system
info system
info system
info system
info system
info system
info system
info system
info system
info system
info system
info system
info system
info system
info system
info system
info system
info system
info system
info system
info system
info system
info system
info system
info system
info system
info system
info system
info system
info system
info system
info system
info system
info system
info system
info system
info system
info system
info system
info system
info system
info system
info system
info system
info system
info system
info system
info system
info system
info system
info system
info system
info system
info system
info system
info system
info system
info system
info system
info system
info system
info system
info system
info system
info system
info system
info system
info system
info system
info system
info system
info system
info system
info system
info system
info system
info system
info system
info system
info system
info system
info system
info system
info system
info system
info system
info system
info system
info system
info system
info system
info system
info system
info system
info system
info system
info system
info system
info system
info system
info system
info system
info system
info system
info system
info system
info system
info system
info system
info system
info system
info system
info system
info system
info system
info system
info system
info system
info system
info system
info system
info system
info system
info system
info system
info system
info system
info system
info system
info system
info system
info system
info system
info system
info system
info system
info system
info system
info system
info system
info system
info system
info system
info system
info system
info system
info system
info system
info system
info system
info system
info system
info system
info system
info system
info system
info system
info system
info system
info system
info system
info system
info system
info system
info system
info system
info system
info system
info system
info system
info system
info system
info system
info system
info system
info system
info system
info system
info system
info system
info system
info system
info system
info system
info system
info system
info system
info system
info system
info system
info system
info system
info system
info system
info system
info system
info system
info system
info system
info system
info system
info system
info system
info system
info system
info system
info system
info system
info system
info system
info system
info system
info system
info system
info system
info system
info system
info system
info system
info system
info system
info system
info system
info system
info system
info system
info system
info system
info system
info system
info system
info system
info system
info system
info system
info system
info system
info system
info system
info system
info system
info system
info system
info system
info system
info system
info system
info system
info system
info system
info system
info system
info system
info system
info system
info system
info system
info system
info system
info system
info system
info system
info system
info system
info system
info system
info system
info system
info system
info system
info system
info system
info system
info system
info system
info system
info system
info system
info system
info system
info system
info system
info system
info system
info system
info system
info system
info system
info system
info system
info system
info system
info system
info system
info system
info system
info system
info system
info system
info system
info system
info system
info system
info system
info system
info system
info system
info system
info system
info system
info system
info system
info system
info system
info system
info system
info system
info system
info system
info system
info system
info system
info system
info system
info system
info system
info system
info system
info system
info system
info system
info system
info system
info system
info system
info system
info system
info system
info system
info system
info system
info system
info system
info system
info system
info system
info system
info system
info system
info system
info system
info system
info system
info system
info system
info system
info system
info system
info system
info system
info system
info system
info system
info system
info system
info system
info system
info system
info system
info system
info system
info system
info system
info system
info system
info system
info system
info system
info system
info system
info system
info system
info system
info system
info system
info system
info system
info system
info system
info system
info system
info system
info system
info system
info system
info system
info system
info system
info system
info system
info system
info system
info system
info system
info system
info system
info system
info system
info system
info system
info system
info system
info system
info system
info system
info system
info system
info system
info system
info system
info system
info system
info system
info system
info system
info system
info system
info system
info system
info system
info system
info system
info system
info system
info system
info system
info system
info system
info system
info system
info system
info system
info system
info system
info system
info system
info system
info system
info system
info system
info system
info system
info system
info system
info system
info system
info system
info system
info system
info system
info system
info system
info system
info system
info system
info system
info system
info system
info system
info system
info system
info system
info system
info system
info system
info system
info system
info system
info system
info system
info system
info system
info system
info system
info system
info system
info system
info system
info system
info system
info system
info system
info system
info system
info system
info system
info system
info system
info system
info system
info system
info system
info system
info system
info system
info system
info system
info system
info system
info system
info system
info system
info system
info system
info system
info system
info system
info system
info system
info system
info system
info system
info system
info system
info system
info system
info system
info system
info system
info system
info system
info system
info system
info system
info system
info system
info system
info system
info system
info system
info system
info system
info system
info system
info system
info system
info system
info system
info system
info system
info system
info system
info system
info system
info system
info system
info system
info system
info system
info system
info system
info system
info system
info system
info system
info system
info system
info system
info system
info system
info system
info system
info system
info system
info system
info system
info system
info system
info system
info system
info system
info system
info system
info system
info system
info system
info system
info system
info system
info system
info system
info system
info system
info system
info system
info system
info system
info system
info system
info system
info system
info system
info system
info system
info system
info system
info system
info system
info system
info system
info system
info system
info system
info system
info system
info system
info system
info system
info system
info system
info system
info system
info system
info system
info system
info system
info system
info system
info system
info system
info system
info system
info system
info system
info system
info system
info system
info system
info system
info system
info system
info system
info system
info system
info system
info system
info system
info system
info system
info system
info system
info system
info system
info system
info system
info system
info system
info system
info system
info system
info system
info system
info system
info system
info system
info system
info system
info system
info system
info system
info system
info system
info system
info system
info system
info system
info system
info system
info system
info system
info system
info system
info system
info system
info system
info system
info system
info system
info system
info system
info system
info system
info system
info system
info system
info system
info system
info system
info system
info system
info system
info system
info system
info system
info system
info system
info system
info system
info system
info system
info system
info system
info system
info system
info system
info system
info system
info system
info system
info system
info system
info system
info system
info system
info system
info system
info system
info system
info system
info system
info system
info system
info system
info system
info system
info system
info system
info system
info system
info system
info system
info system
info system
info system
info system
info system
info system
info system
info system
info system
info system
info system
info system
info system
info system
info system
info system
info system
info system
info system
info system
info system
info system
info system
info system
info system
info system
info system
info system
info system
info system
info system
info system
info system
info system
info system
info system
info system
info system
info system
info system
info system
info system
info system
info system
info system
info system
info system
info system
info system
info system
info system
info system
info system
info system
info system
info system
info system
info system
info system
info system
info system
info system
info system
info system
info system
info system
info system
info system
info system
info system
info system
info system
info system
info system
info system
info system
info system
info system
info system
info system
info system
info system
info system
info system
info system
info system
info system
info system
info system
info system
info system
info system
info system
info system
info system
info system
info system
info system
info system
info system
info system
info system
info system
info system
info system
info system
info system
info system
info system
info system
info system
info system
info system
info system
info system
info system
info system
info system
info system
info system
info system
info system
info system
info system
info system
info system
info system
info system
info system
info system
info system
info system
info system
info system
info system
info system
info system
info system
info system
info system
info system
info system
info system
info system
info system
info system
info system
info system
info system
info system
info system
info system
info system
info system
info system
info system
info system
info system
info system
info system
info system
info system
info system
info system
info system
info system
info system
info system
info system
info system
info system
info system
info system
info system
info system
info system
info system
info system
info system
info system
info system
info system
info system
info system
info system
info system
info system
info system
info system
info system
info system
info system
info system
info system
info system
info system
info system
info system
info system
info system
info system
info system
info system
info system
info system
info system
info system
info system
info system
info system
info system
info system
info system
info system
info system
info system
info system
info system
info system
info system
info system
info system
info system
info system
info system
info system
info system
info system
info system
info system
info system
info system
info system
info system
info system
info system
info system
info system
info system
info system
info system
info system
info system
info system
info system
info system
info system
info system
info system
info system
info system
info system
info system
info system
info system
info system
info system
info system
info system
info system
info system
info system
info system
info system
info system
info system
info system
info system
info system
info system
info system
info system
info system
info system
info system
info system
info system
info system
info system
info system
info system
info system
info system
info system
info system
info system
info system
info system
info system
info system
info system
info system
info system
info system
info system
info system
info system
info system
info system
info system
info system
info system
info system
info system
info system
info system
info system
info system
info system
info system
info system
info system
info system
info system
info system
info system
info system
info system
info system
info system
info system
info system
info system
info system
info system
info system
info system
info system
info system
info system
info system
info system
info system
info system
info system
info system
info system
info system
info system
info system
info system
info system
info system
info system
info system
info system
info system
info system
info system
info system
info system
info system
info system
info system
info system
info system
info system
info system
info system
info system
info system
info system
info system
info system
info system
info system
info system
info system
info system
info system
info system
info system
info system
info system
info system
info system
info system
info system
info system
info system
info system
info system
info system
info system
info system
info system
info system
info system
info system
info system
info system
info system
info system
info system
info system
info system
info system
info system
info system
info system
info system
info system
info system
info system
info system
info system
info system
info system
info system
info system
info system
info system
info system
info system
info system
info system
info system
info system
info system
info system
info system
info system
info system
info system
info system
info system
info system
info system
info system
info system
info system
info system
info system
info system
info system
info system
info system
info system
info system
info system
info system
info system
info system
info system
info system
info system
info system
info system
info system
info system
info system
info system
info system
info system
info system
info system
info system
info system
info system
info system
info system
info system
info system
info system
info system
info system
info system
info system
info system
info system
info system
info system
info system
info system
info system
info system
info system
info system
info system
info system
info system
info system
info system
info system
info system
info system
info system
info system
info system
info system
info system
info system
info system
info system
info system
info system
info system
info system
info system
info system
info system
info system
info system
info system
info system
info system
info system
info system
info system
info system
info system
info system
info system
info system
info system
info system
info system
info system
info system
info system
info system
info system
info system
info system
info system
info system
info system
info system
info system
info system
info system
info system
info system
info system
info system
info system
info system
info system
info system
info system
info system
info system
info system
info system
info system
info system
info system
info system
info system
info system
info system
info system
info system
info system
info system
info system
info system
info system
info system
info system
info system
info system
info system
info system
info system
info system
info system
info system
info system
info system
info system
info system
info system
info system
info system
info system
info system
info system
info system
info system
info system
info system
info system
info system
info system
info system
info system
info system
info system
info system
info system
info system
info system
info system
info system
info system
info system
info system
info system
info system
info system
info system
info system
info system
info system
info system
info system
info system
info system
info system
info system
info system
info system
info system
info system
info system
info system
info system
info system
info system
info system
info system
info system
info system
info system
info system
info system
info system
info system
info system
info system
info system
info system
info system
info system
info system
info system
info system
info system
info system
info system
info system
info system
info system
info system
info system
info system
info system
info system
info system
info system
info system
info system
info system
info system
info system
info system
info system
info system
info system
info system
info system
info system
info system
info system
info system
info system
info system
info system
info system
info system
info system
info system
info system
info system
info system
info system
info system
info system
info system
info system
info system
info system
info system
info system
info system
info system
info system
info system
info system
info system
info system
info system
info system
info system
info system
info system
info system
info system
info system
info system
info system
info system
info system
info system
info system
info system
info system
info system
info system
info system
info system
info system
info system
info system
info system
info system
info system
info system
info system
info system
info system
info system
info system
info system
info system
info system
info system
info system
info system
info system
info system
info system
info system
info system
info system
info system
info system
info system
info system
info system
info system
info system
info system
info system
info system
info system
info system
info system
info system
info system
info system
info system
info system
info system
info system
info system
info system
info system
info system
info system
info system
info system
info system
info system
info system
info system
info system
info system
info system
info system
info system
info system
info system
info system
info system
info system
info system
info system
info system
info system
info system
info system
info system
info system
info system
info system
info system
info system
info system
info system
info system
info system
info system
info system
info system
info system
info system
info system
info system
info system
info system
info system
info system
info system
info system
info system
info system
info system
info system
info system
info system
info system
info system
info system
info system
info system
info system
info system
info system
info system
info system
info system
info system
info system
info system
info system
info system
info system
info system
info system
info system
info system
info system
info system
info system
info system
info system
info system
info system
info system
info system
info system
info system
info system
info system
info system
info system
info system
info system
info system
info system
info system
info system
info system
info system
info system
info system
info system
info system
info system
info system
info system
info system
info system
info system
info system
info system
info system
info system
info system
info system
info system
info system
info system
info system
info system
info system
info system
info system
info system
info system
info system
info system
info system
info system
info system
info system
info system
info system
info system
info system
info system
info system
info system
info system
info system
info system
info system
info system
info system
info system
info system
info system
info system
info system
info system
info system
info system
info system
info system
info system
info system
info system
info system
info system
info system
info system
info system
info system
info system
info system
info system
info system
info system
info system
info system
info system
info system
info system
info system
info system
info system
info system
info system
info system
info system
info system
info system
info system
info system
info system
info system
info system
info system
info system
info system
info system
info system
info system
info system
info system
info system
info system
info system
info system
info system
info system
info system
info system
info system
info system
info system
info system
info system
info system
info system
info system
info system
info system
info system
info system
info system
info system
info system
info system
info system
info system
info system
info system
info system
info system
info system
info system
info system
info system
info system
info system
info system
info system
info system
info system
info system
info system
info system
info system
info system
info system
info system
info system
info system
info system
info system
info system
info system
info system
info system
info system
info system
info system
info system
info system
info system
info system
info system
info system
info system
info system
info system
info system
info system
info system
info system
info system
info system
info system
info system
info system
info system
info system
info system
info system
info system
info system
info system
info system
info system
info system
info system
info system
info system
info system
info system
info system
info system
info system
info system
info system
info system
info system
info system
info system
info system
info system
info system
info system
info system
info system
info system
info system
info system
info system
info system
info system
info system
info system
info system
info system
info system
info system
info system
info system
info system
info system
info system
info system
info system
info system
info system
info system
info system
info system
info system
info system
info system
info system
info system
info system
info system
info system
info system
info system
info system
info system
info system
info system
info system
info system
info system
info system
info system
info system
info system
info system
info system
info system
info system
info system
info system
info system
info system
info system
info system
info system
info system
info system
info system
info system
info system
info system
info system
info system
info system
info system
info system
info system
info system
info system
info system
info system
info system
info system
info system
info system
info system
info system
info system
info system
info system
info system
info system
info system
info system
info system
info system
info system
info system
info system
info system
info system
info system
info system
info system
info system
info system
info system
info system
info system
info system
info system
info system
info system
info system
info system
info system
info system
info system
info system
info system
info system
info system
info system
info system
info system
info system
info system
info system
info system
info system
info system
info system
info system
info system
info system
info system
info system
info system
info system
info system
info system
info system
info system
info system
info system
info system
info system
info system
info system
info system
info system
info system
info system
info system
info system
info system
info system
info system
info system
info system
info system
info system
info system
info system
info system
info system
info system
info system
info system
info system
info system
info system
info system
info system
info system
info system
info system
info system
info system
info system
info system
info system
info system
info system
info system
info system
info system
info system
info system
info system
info system
info system
info system
info system
info system
info system
info system
info system
info system
info system
info system
info system
info system
info system
info system
info system
info system
info system
info system
info system
info system
info system
info system
info system
info system
info system
info system
info system
info system
info system
info system
info system
info system
info system
info system
info system
info system
info system
info system
info system
info system
info system
info system
info system
info system
info system
info system
info system
info system
info system
info system
info system
info system
info system
info system
info system
info system
info system
info system
info system
info system
info system
info system
info system
info system
info system
info system
info system
info system
info system
info system
info system
info system
info system
info system
info system
info system
info system
info system
info system
info system
info system
info system
info system
info system
info system
info system
info system
info system
info system
info system
info system
info system
info system
info system
info system
info system
info system
info system
info system
info system
info system
info system
info system
info system
info system
info system
info system
info system
info system
info system
info system
info system
info system
info system
info system
info system
info system
info system
info system
info system
info system
info system
info system
info system
info system
info system
info system
info system
info system
info system
info system
info system
info system
info system
info system
info system
info system
info system
info system
info system
info system
info system
info system
info system
info system
info system
info system
info system
info system
info system
info system
info system
info system
info system
info system
info system
info system
info system
info system
info system
info system
info system
info system
info system
info system
info system
info system
info system
info system
info system
info system
info system
info system
info system
info system
info system
info system
info system
info system
info system
info system
info system
info system
info system
info system
info system
info system
info system
info system
info system
info system
info system
info system
info system
info system
info system
info system
info system
info system
info system
info system
info system
info system
info system
info system
info system
info system
info system
info system
info system
info system
info system
info system
info system
info system
info system
info system
info system
info system
info system
info system
info system
info system
info system
info system
info system
info system
info system
info system
info system
info system
info system
info system
info system
info system
info system
info system
info system
info system
info system
info system
info system
info system
info system
info system
info system
info system
info system
info system
info system
info system
info system
info system
info system
info system
info system
info system
info system
info system
info system
info system
info system
info system
info system
info system
info system
info system
info system
info system
info system
info system
info system
info system
info system
info system
info system
info system
info system
info system
info system
info system
info system
info system
info system
info system
info system
info system
info system
info system
info system
info system
info system
info system
info system
info system
info system
info system
info system
info system
info system
info system
info system
info system
info system
info system
info system
info system
info system
info system
info system
info system
info system
info system
info system
info system
info system
info system
info system
info system
info system
info system
info system
info system
info system
info system
info system
info system
info system
info system
info system
info system
info system
info system
info system
info system
info system
info system
info system
info system
info system
info system
info system
info system
info system
info system
info system
info system
info system
info system
info system
info system
info system
info system
info system
info system
info system
info system
info system
info system
info system
info system
info system
info system
info system
info system
info system
info system
info system
info system
info system
info system
info system
info system
info system
info system
info system
info system
info system
info system
info system
info system
info system
info system
info system
info system
info system
info system
info system
info system
info system
info system
info system
info system
info system
info system
info system
info system
info system
info system
info system
info system
info system
info system
info system
info system
info system
info system
info system
info system
info system
info system
info system
info system
info system
info system
info system
info system
info system
info system
info system
info system
info system
info system
info system
info system
info system
info system
info system
info system
info system
info system
info system
info system
info system
info system
info system
info system
info system
info system
info system
info system
info system
info system
info system
info system
info system
info system
info system
info system
info system
info system
info system
info system
info system
info system
info system
info system
info system
info system
info system
info system
info system
info system
info system
info system
info system
info system
info system
info system
info system
info system
info system
info system
info system
info system
info system
info system
info system
info system
info system
info system
info system
info system
info system
info system
info system
info system
info system
info system
info system
info system
info system
info system
info system
info system
info system
info system
info system
info system
info system
info system
info system
info system
info system
info system
info system
info system
info system
info system
info system
info system
info system
info system
info system
info system
info system
info system
info system
info system
info system
info system
info system
info system
info system
info system
info system
info system
info system
info system
info system
info system
info system
info system
info system
info system
info system
info system
info system
info system
info system
info system
info system
info system
info system
info system
info system
info system
info system
info system
info system
info system
info system
info system
info system
info system
info system
info system
info system
info system
info system
info system
info system
info system
info system
info system
info system
info system
info system
info system
info system
info system
info system
info system
info system
info system
info system
info system
info system
info system
info system
info system
info system
info system
info system
info system
info system
info system
info system
info system
info system
info system
info system
info system
info system
info system
info system
info system
info system
info system
info system
info system
info system
info system
info system
info system
info system
info system
info system
info system
info system
info system
info system
info system
info system
info system
info system
info system
info system
info system
info system
info system
info system
info system
info system
info system
info system
info system
info system
info system
info system
info system
info system
info system
info system
info system
info system
info system
info system
info system
info system
info system
info system
info system
info system
info system
info system
info system
info system
info system
info system
info system
info system
info system
info system
info system
info system
info system
info system
info system
info system
info system
info system
info system
info system
info system
info system
info system
info system
info system
info system
info system
info system
info system
info system
info system
info system
info system
info system
info system
info system
info system
info system
info system
info system
info system
info system
info system
info system
info system
info system
info system
info system
info system
info system
info system
info system
info system
info system
info system
info system
info system
info system
info system
info system
info system
info system
info system
info system
info system
info system
info system
info system
info system
info system
info system
info system
info system
info system
info system
info system
info system
info system
info system
info system
info system
info system
info system
info system
info system
info system
info system
info system
info system
info system
info system
info system
info system
info system
info system
info system
info system
info system
info system
info system
info system
info system
info system
info system
info system
info system
info system
info system
info system
info system
info system
info system
info system
info system
info system
info system
info system
info system
info system
info system
info system
info system
info system
info system
info system
info system
info system
info system
info system
info system
info system
info system
info system
info system
info system
info system
info system
info system
info system
info system
info system
info system
info system
info system
info system
info system
info system
info system
info system
info system
info system
info system
info system
info system
info system
info system
info system
info system
info system
info system
info system
info system
info system
info system
info system
info system
info system
info system
info system
info system
info system
info system
info system
info system
info system
info system
info system
info system
info system
info system
info system
info system
info system
info system
info system
info system
info system
info system
info system
info system
info system
info system
info system
info system
info system
info system
info system
info system
info system
info system
info system
info system
info system
info system
info system
info system
info system
info system
info system
info system
info system
info system
info system
info system
info system
info system
info system
info system
info system
info system
info system
info system
info system
info system
info system
info system
info system
info system
info system
info system
info system
info system
info system
info system
info system
info system
info system
info system
info system
info system
info system
info system
info system
info system
info system
info system
info system
info system
info system
info system
info system
info system
info system
info system
info system
info system
info system
info system
info system
info system
info system
info system
info system
info system
info system
info system
info system
info system
info system
info system
info system
info system
info system
info system
info system
info system
info system
info system
info system
info system
info system
info system
info system
info system
info system
info system
info system
info system
info system
info system
info system
info system
info system
info system
info system
info system
info system
info system
info system
info system
info system
info system
info system
info system
info system
info system
info system
info system
info system
info system
info system
info system
info system
info system
info system
info system
info system
info system
info system
info system
info system
info system
info system
info system
info system
info system
info system
info system
info system
info system
info system
info system
info system
info system
info system
info system
info system
info system
info system
info system
info system
info system
info system
info system
info system
info system
info system
info system
info system
info system
info system
info system
info system
info system
info system
info system
info system
info system
info system
info system
info system
info system
info system
info system
info system
info system
info system
info system
info system
info system
info system
info system
info system
info system
info system
info system
info system
info system
info system
info system
info system
info system
info system
info system
info system
info system
info system
info system
info system
info system
info system
info system
info system
info system
info system
info system
info system
info system
info system
info system
info system
info system
info system
info system
info system
info system
info system
info system
info system
info system
info system
info system
info system
info system
info system
info system
info system
info system
info system
info system
info system
info system
info system
info system
info system
info system
info system
info system
info system
info system
info system
info system
info system
info system
info system
info system
info system
info system
info system
info system
info system
info system
info system
info system
info system
info system
info system
info system
info system
info system
info system
info system
info system
info system
info system
info system
info system
info system
info system
info system
info system
info system
info system
info system
info system
info system
info system
info system
info system
info system
info system
info system
info system
info system
info system
info system
info system
info system
info system
info system
info system
info system
info system
info system
info system
info system
info system
info system
info system
info system
info system
info system
info system
info system
info system
info system
info system
info system
info system
info system
info system
info system
info system
info system
info system
info system
info system
info system
info system
info system
info system
info system
info system
info system
info system
info system
info system
info system
info system
info system
info system
info system
info system
info system
info system
info system
info system
info system
info system
info system
info system
info system
info system
info system
info system
info system
info system
info system
info system
info system
info system
info system
info system
info system
info system
info system
info system
info system
info system
info system
info system
info system
info system
info system
info system
info system
info system
info system
info system
info system
info system
info system
info system
info system
info system
info system
info system
info system
info system
info system
info system
info system
info system
info system
info system
info system
info system
info system
info system
info system
info system
info system
info system
info system
info system
info system
info system
info system
info system
info system
info system
info system
info system
info system
info system
info system
info system
info system
info system
info system
info system
info system
info system
info system
info system
info system
info system
info system
info system
info system
info system
info system
info system
info system
info system
info system
info system
info system
info system
info system
info system
info system
info system
info system
info system
info system
info system
info system
info system
info system
info system
info system
info system
info system
info system
info system
info system
info system
info system
info system
info system
info system
info system
info system
info system
info system
info system
info system
info system
info system
info system
info system
info system
info system
info system
info system
info system
info system
info system
info system
info system
info system
info system
info system
info system
info system
info system
info system
info system
info system
info system
info system
info system
info system
info system
info system
info system
info system
info system
info system
info system
info system
info system
info system
info system
info system
info system
info system
info system
info system
info system
info system
info system
info system
info system
info system
info system
info system
info system
info system
info system
info system
info system
info system
info system
info system
info system
info system
info system
info system
info system
info system
info system
info system
info system
info system
info system
info system
info system
info system
info system
info system
info system
info system
info system
info system
info system
info system
info system
info system
info system
info system
info system
info system
info system
info system
info system
info system
info system
info system
info system
info system
info system
info system
info system
info system
info system
info system
info system
info system
info system
info system
info system
info system
info system
info system
info system
info system
info system
info system
info system
info system
info system
info system
info system
info system
info system
info system
info system
info system
info system
info system
info system
info system
info system
info system
info system
info system
info system
info system
info system
info system
info system
info system
info system
info system
info system
info system
info system
info system
info system
info system
info system
info system
info system
info system
info system
info system
info system
info system
info system
info system
info system
info system
info system
info system
info system
info system
info system
info system
info system
info system
info system
info system
info system
info system
info system
info system
info system
info system
info system
info system
info system
info system
info system
info system
info system
info system
info system
info system
info system
info system
info system
info system
info system
info system
info system
info system
info system
info system
info system
info system
info system
info system
info system
info system
info system
info system
info system
info system
info system
info system
info system
info system
info system
info system
info system
info system
info system
info system
info system
info system
info system
info system
info system
info system
info system
info system
info system
info system
info system
info system
info system
info system
info system
info system
info system
info system
info system
info system
info system
info system
info system
info system
info system
info system
info system
info system
info system
info system
info system
info system
info system
info system
info system
info system
info system
info system
info system
info system
info system
info system
info system
info system
info system
info system
info system
info system
info system
info system
info system
info system
info system
info system
info system
info system
info system
info system
info system
info system
info system
info system
info system
info system
info system
info system
info system
info system
info system
info system
info system
info system
info system
info system
info system
info system
info system
info system
info system
info system
info system
info system
info system
info system
info system
info system
info system
info system
info system
info system
info system
info system
info system
info system
info system
info system
info system
info system
info system
info system
info system
info system
info system
info system
info system
info system
info system
info system
info system
info system
info system
info system
info system
info system
info system
info system
info system
info system
info system
info system
info system
info system
info system
info system
info system
info system
info system
info system
info system
info system
info system
info system
info system
info system
info system
info system
info system
info system
info system
info system
info system
info system
info system
info system
info system
info system
info system
info system
info system
info system
info system
info system
info system
info system
info system
info system
info system
info system
info system
info system
info system
info system
info system
info system
info system
info system
info system
info system
info system
info system
info system
info system
info system
info system
info system
info system
info system
info system
info system
info system
info system
info system
info system
info system
info system
info system
info system
info system
info system
info system
info system
info system
info system
info system
info system
info system
info system
info system
info system
info system
info system
info system
info system
info system
info system
info system
info system
info system
info system
info system
info system
info system
info system
info system
info system
info system
info system
info system
info system
info system
info system
info system
info system
info system
info system
info system
info system
info system
info system
info system
info system
info system
info system
info system
info system
info system
info system
info system
info system
info system
info system
info system
info system
info system
info system
info system
info system
info system
info system
info system
info system
info system
info system
info system
info system
info system
info system
info system
info system
info system
info system
info system
info system
info system
info system
info system
info system
info system
info system
info system
info system
info system
info system
info system
info system
info system
info system
info system
info system
info system
info system
info system
info system
info system
info system
info system
info system
info system
info system
info system
info system
info system
info system
info system
info system
info system
info system
info system
info system
info system
info system
info system
info system
info system
info system
info system
info system
info system
info system
info system
info system
info system
info system
info system
info system
info system
info system
info system
info system
info system
info system
info system
info system
info system
info system
info system
info system
info system
info system
info system
info system
info system
info system
info system
info system
info system
info system
info system
info system
info system
info system
info system
info system
info system
info system
info system
info system
info system
info system
info system
info system
info system
info system
info system
info system
info system
info system
info system
info system
info system
info system
info system
info system
info system
info system
info system
info system
info system
info system
info system
info system
info system
info system
info system
info system
info system
info system
info system
info system
info system
info system
info system
info system
info system
info system
info system
info system
info system
info system
info system
info system
info system
info system
info system
info system
info system
info system
info system
info system
info system
info system
info system
info system
info system
info system
info system
info system
info system
info system
info system
info system
info system
info system
info system
info system
info system
info system
info system
info system
info system
info system
info system
info system
info system
info system
info system
info system
info system
info system
info system
info system
info system
info system
info system
info system
info system
info system
info system
info system
info system
info system
info system
info system
info system
info system
info system
info system
info system
info system
info system
info system
info system
info system
info system
info system
info system
info system
info system
info system
info system
info system
info system
info system
info system
info system
info system
info system
info system
info system
info system
info system
info system
info system
info system
info system
info system
info system
info system
info system
info system
info system
info system
info system
info system
info system
info system
info system
info system
info system
info system
info system
info system
info system
info system
info system
info system
info system
info system
info system
info system
info system
info system
info system
info system
info system
info system
info system
info system
info system
info system
info system
info system
info system
info system
info system
info system
info system
info system
info system
info system
info system
info system
info system
info system
info system
info system
info system
info system
info system
info system
info system
info system
info system
info system
info system
info system
info system
info system
info system
info system
info system
info system
info system
info system
info system
info system
info system
info system
info system
info system
info system
info system
info system
info system
info system
info system
info system
info system
info system
info system
info system
info system
info system
info system
info system
info system
info system
info system
info system
info system
info system
info system
info system
info system
info system
info system
info system
info system
info system
info system
info system
info system
info system
info system
info system
info system
info system
info system
info system
info system
info system
info system
info system
info system
info system
info system
info system
info system
info system
info system
info system
info system
info system
info system
info system
info system
info system
info system
info system
info system
info system
info system
info system
info system
info system
info system
info system
info system
info system
info system
info system
info system
info system
info system
info system
info system
info system
info system
info system
info system
info system
info system
info system
info system
info system
info system
info system
info system
info system
info system
info system
info system
info system
info system
info system
info system
info system
info system
info system
info system
info system
info system
info system
info system
info system
info system
info system
info system
info system
info system
info system
info system
info system
info system
info system
info system
info system
info system
info system
info system
info system
info system
info system
info system
info system
info system
info system
info system
info system
info system
info system
info system
info system
info system
info system
info system
info system
info system
info system
info system
info system
info system
info system
info system
info system
info system
info system
info system
info system
info system
info system
info system
info system
info system
info system
info system
info system
info system
info system
info system
info system
info system
info system
info system
info system
info system
info system
info system
info system
info system
info system
info system
info system
info system
info system
info system
info system
info system
info system
info system
info system
info system
info system
info system
info system
info system
info system
info system
info system
info system
info system
info system
info system
info system
info system
info system
info system
info system
info system
info system
info system
info system
info system
info system
info system
info system
info system
info system
info system
info system
info system
info system
info system
info system
info system
info system
info system
info system
info system
info system
info system
info system
info system
info system
info system
info system
info system
info system
info system
info system
info system
info system
info system
info system
info system
info system
info system
info system
info system
info system
info system
info system
info system
info system
info system
info system
info system
info system
info system
info system
info system
info system
info system
info system
info system
info system
info system
info system
info system
info system
info system
info system
info system
info system
info system
info system
info system
info system
info system
info system
info system
info system
info system
info system
info system
info system
info system
info system
info system
info system
info system
info system
info system
info system
info system
info system
info system
info system
info system
info system
info system
info system
info system
info system
info system
info system
info system
info system
info system
info system
info system
info system
info system
info system
info system
info system
info system
info system
info system
info system
info system
info system
info system
info system
info system
info system
info system
info system
info system
info system
info system
info system
info system
info system
info system
info system
info system
info system
info system
info system
info system
info system
info system
info system
info system
info system
info system
info system
info system
info system
info system
info system
info system
info system
info system
info system
info system
info system
info system
info system
info system
info system
info system
info system
info system
info system
info system
info system
info system
info system
info system
info system
info system
info system
info system
info system
info system
info system
info system
info system
info system
info system
info system
info system
info system
info system
info system
info system
info system
info system
info system
info system
info system
info system
info system
info system
info system
info system
info system
info system
info system
info system
info system
info system
info system
info system
info system
info system
info system
info system
info system
info system
info system
info system
info system
info system
info system
info system
info system
info system
info system
info system
info system
info system
info system
info system
info system
info system
info system
info system
info system
info system
info system
info system
info system
info system
info system
info system
info system
info system
info system
info system
info system
info system
info system
info system
info system
info system
info system
[...]
info system
info system
info system
info system
info system
info system
info system
info system
info system
info system
info system
info system
info system
info system
info system
info system
info system
info system
info system
info system
info system
info system
info system
info system
info system
info system
info system
info system
info system
info system
info system
info system
info system
info system
info system
info system
info system
info system
info system
info system
info system
info system
info system
info system
info system
info system
info system
info system
info system
info system
info system
info system
info system
info system
info system
info system
info system
info system
info system
info system
info system
info system
info system
info system
info system
info system
info system
info system
info system
info system
info system
info system
info system
info system
info system
info system
info system
info system
info system
info system
info system
info system
info system
info system
info system
info system
info system
info system
info system
info system
info system
info system
info system
info system
info system
info system
info system
info system
info system
info system
info system
info system
info system
info system
info system
info system
info system
info system
info system
info system
info system
info system
info system
info system
info system
info system
info system
info system
info system
info system
info system
info system
info system
info system
info system
info system
info system
info system
info system
info system
info system
info system
info system
info system
info system
info system
info system
info system
info system
info system
info system
info system
info system
info system
info system
info system
info system
info system
info system
info system
info system
info system
info system
info system
info system
info system
info system
info system
info system
info system
info system
info system
info system
info system
info system
info system
info system
info system
info system
info system
info system
info system
info system
info system
info system
info system
info system
info system
info system
info system
info system
info system
info system
info system
info system
info system
info system
info system
info system
info system
info system
info system
info system
info system
info system
info system
info system
info system
info system
info system
info system
info system
info system
info system
info system
info system
info system
info system
info system
info system
info system
info system
info system
info system
info system
info system
info system
info system
info system
info system
info system
info system
info system
info system
info system
info system
info system
info system
info system
info system
info system
info system
info system
info system
info system
info system
info system
info system
info system
info system
info system
info system
info system
info system
info system
info system
info system
info system
info system
info system
info system
info system
info system
info system
info system
info system
info system
info system
info system
info system
info system
info system
info system
info system
info system
info system
info system
info system
info system
info system
info system
info system
info system
info system
info system
info system
info system
info system
info system
info system
info system
info system
info system
info system
info system
info system
info system
info system
info system
info system
info system
info system
info system
info system
info system
info system
info system
info system
info system
info system
info system
info system
info system
info system
info system
info system
info system
info system
info system
info system
info system
info system
info system
info system
info system
info system
info system
info system
info system
info system
info system
info system
info system
info system
info system
info system
info system
info system
info system
info system
info system
info system
info system
info system
info system
info system
info system
info system
info system
info system
info system
info system
info system
info system
info system
info system
info system
info system
info system
info system
info system
info system
info system
info system
info system
info system
info system
info system
info system
info system
info system
info system
info system
info system
info system
info system
info system
info system
info system
info system
info system
info system
info system
info system
info system
info system
info system
info system
info system
info system
info system
info system
info system
info system
info system
info system
info system
info system
info system
info system
info system
info system
info system
info system
info system
info system
info system
info system
info system
info system
info system
info system
info system
info system
info system
info system
info system
info system
info system
info system
info system
info system
info system
info system
info system
info system
info system
info system
info system
info system
info system
info system
info system
info system
info system
info system
info system
info system
info system
info system
info system
info system
info system
info system
info system
info system
info system
info system
info system
info system
info system
info system
info system
info system
info system
info system
info system
info system
info system
info system
info system
info system
info system
info system
info system
info system
info system
info system
info system
info system
info system
info system
info system
info system
info system
info system
info system
info system
info system
info system
info system
info system
info system
info system
info system
info system
info system
info system
info system
info system
info system
info system
info system
info system
info system
info system
info system
info system
info system
info system
info system
info system
info system
info system
info system
info system
info system
info system
info system
info system
info system
info system
info system
info system
info system
info system
info system
info system
info system
info system
info system
info system
info system
info system
info system
info system
info system
info system
info system
info system
info system
info system
info system
info system
info system
info system
info system
info system
info system
info system
info system
info system
info system
info system
info system
info system
info system
info system
info system
info system
info system
info system
info system
info system
info system
info system
info system
info system
info system
info system
info system
info system
info system
info system
info system
info system
info system
info system
info system
info system
info system
info system
info system
info system
info system
info system
info system
info system
info system
info system
info system
info system
info system
info system
info system
info system
info system
info system
info system
info system
info system
info system
info system
info system
info system
info system
info system
info system
info system
info system
info system
info system
info system
info system
info system
info system
info system
info system
info system
info system
info system
info system
info system
info system
info system
info system
info system
info system
info system
info system
info system
info system
info system
info system
info system
info system
info system
info system
info system
info system
info system
info system
info system
info system
info system
info system
info system
info system
info system
info system
info system
info system
info system
info system
info system
info system
info system
info system
info system
info system
info system
info system
info system
info system
info system
info system
info system
info system
info system
info system
info system
info system
info system
info system
info system
info system
info system
info system
info system
info system
info system
info system
info system
info system
info system
info system
info system
info system
info system
info system
info system
info system
info system
info system
info system
info system
info system
info system
info system
info system
info system
info system
info system
info system
info system
info system
info system
info system
info system
info system
info system
info system
info system
info system
info system
info system
info system
info system
info system
info system
info system
info system
info system
info system
info system
info system
info system
info system
info system
info system
info system
info system
info system
info system
info system
info system
info system
info system
info system
info system
info system
info system
info system
info system
info system
info system
info system
info system
info system
info system
info system
info system
info system
info system
info system
info system
info system
info system
info system
info system
info system
info system
info system
info system
info system
info system
info system
info system
info system
info system
info system
info system
info system
info system
info system
info system
info system
info system
info system
info system
info system
info system
info system
info system
info system
info system
info system
info system
info system
info system
info system
info system
info system
info system
info system
info system
info system
info system
info system
info system
info system
info system
info system
info system
info system
info system
info system
info system
info system
info system
info system
info system
info system
info system
info system
info system
info system
info system
info system
info system
info system
info system
info system
info system
info system
info system
info system
info system
info system
info system
info system
info system
info system
info system
info system
info system
info system
info system
info system
info system
info system
info system
info system
info system
info system
info system
info system
info system
info system
info system
info system
info system
info system
info system
info system
info system
info system
info system
info system
info system
info system
info system
info system
info system
info system
info system
info system
info system
info system
info system
info system
info system
info system
info system
info system
info system
info system
info system
info system
info system
info system
info system
info system
info system
info system
info system
info system
info system
info system
info system
info system
info system
info system
info system
info system
info system
info system
info system
info system
info system
info system
info system
info system
info system
info system
info system
info system
info system
info system
info system
info system
info system
info system
info system
info system
info system
info system
info system
info system
info system
info system
info system
info system
info system
info system
info system
info system
info system
info system
info system
info system
info system
info system
info system
info system
info system
info system
info system
info system
info system
info system
info system
info system
info system
info system
info system
info system
info system
info system
info system
info system
info system
info system
info system
info system
info system
info system
info system
info system
info system
info system
info system
info system
info system
info system
info system
info system
info system
info system
info system
info system
info system
info system
info system
info system
info system
info system
info system
info system
info system
info system
info system
info system
info system
info system
info system
info system
info system
info system
info system
info system
info system
info system
info system
info system
info system
info system
info system
info system
info system
info system
info system
info system
info system
info system
info system
info system
info system
info system
info system
info system
info system
info system
info system
info system
info system
info system
info system
info system
info system
info system
info system
info system
info system
info system
info system
info system
info system
info system
info system
info system
info system
info system
info system
info system
info system
info system
info system
info system
info system
info system
info system
info system
info system
info system
info system
info system
info system
info system
info system
info system
info system
info system
info system
info system
info system
info system
info system
info system
info system
info system
info system
info system
info system
info system
info system
info system
info system
info system
info system
info system
info system
info system
info system
info system
info system
info system
info system
info system
info system
info system
info system
info system
info system
info system
info system
info system
info system
info system
info system
info system
info system
info system
info system
info system
info system
info system
info system
info system
info system
info system
info system
info system
info system
info system
info system
info system
info system
info system
info system
info system
info system
info system
info system
info system
info system
info system
info system
info system
info system
info system
info system
info system
info system
info system
info system
info system
info system
info system
info system
info system
info system
info system
info system
info system
info system
info system
info system
info system
info system
info system
info system
info system
info system
info system
info system
info system
info system
info system
info system
info system
info system
info system
info system
info system
info system
info system
info system
info system
info system
info system
info system
info system
info system
info system
info system
info system
info system
info system
info system
info system
info system
info system
info system
info system
info system
info system
info system
info system
info system
info system
info system
info system
info system
info system
info system
info system
info system
info system
info system
info system
info system
info system
info system
info system
info system
info system
info system
info system
info system
info system
info system
info system
info system
info system
info system
info system
info system
info system
info system
info system
info system
info system
info system
info system
info system
info system
info system
info system
info system
info system
info system
info system
info system
info system
info system
info system
info system
info system
info system
info system
info system
info system
info system
info system
info system
info system
info system
info system
info system
info system
info system
info system
info system
info system
info system
info system
info system
info system
info system
info system
info system
info system
info system
info system
info system
info system
info system
info system
info system
info system
info system
info system
info system
info system
info system
info system
info system
info system
info system
info system
info system
info system
info system
info system
info system
info system
info system
info system
info system
info system
info system
info system
info system
info system
info system
info system
info system
info system
info system
info system
info system
info system
info system
info system
info system
info system
info system
info system
info system
info system
info system
info system
info system
info system
info system
info system
info system
info system
info system
info system
info system
info system
info system
info system
info system
info system
info system
info system
info system
info system
info system
info system
info system
info system
info system
info system
info system
info system
info system
info system
info system
info system
info system
info system
info system
info system
info system
info system
info system
info system
info system
info system
info system
info system
info system
info system
info system
info system
info system
info system
info system
info system
info system
info system
info system
info system
info system
info system
info system
info system
info system
info system
info system
info system
info system
info system
info system
info system
info system
info system
info system
info system
info system
info system
info system
info system
info system
info system
info system
info system
info system
info system
info system
info system
info system
info system
info system
info system
info system
info system
info system
info system
info system
info system
info system
info system
info system
info system
info system
info system
info system
info system
info system
info system
info system
info system
info system
info system
info system
info system
info system
info system
info system
info system
info system
info system
info system
info system
info system
info system
info system
info system
info system
info system
info system
info system
info system
info system
info system
info system
info system
info system
info system
info system
info system
info system
info system
info system
info system
info system
info system
info system
info system
info system
info system
info system
info system
info system
info system
info system
info system
info system
info system
info system
info system
info system
info system
info system
info system
info system
info system
info system
info system
info system
info system
info system
info system
info system
info system
info system
info system
info system
info system
info system
info system
info system
info system
info system
info system
info system
info system
info system
info system
info system
info system
info system
info system
info system
info system
info system
info system
info system
info system
info system
info system
info system
info system
info system
info system
info system
info system
info system
info system
info system
info system
info system
info system
info system
info system
info system
info system
info system
info system
info system
info system
info system
info system
info system
info system
info system
info system
info system
info system
info system
info system
info system
info system
info system
info system
info system
info system
info system
info system
info system
info system
info system
info system
info system
info system
info system
info system
info system
info system
info system
info system
info system
info system
info system
info system
info system
info system
info system
info system
info system
info system
info system
info system
info system
info system
info system
info system
info system
info system
info system
info system
info system
info system
info system
info system
info system
info system
info system
info system
info system
info system
info system
info system
info system
info system
info system
info system
info system
info system
info system
info system
info system
info system
info system
info system
info system
info system
info system
info system
info system
info system
info system
info system
info system
info system
info system
info system
info system
info system
info system
info system
info system
info system
info system
info system
info system
info system
info system
info system
info system
info system
info system
info system
info system
info system
info system
info system
info system
info system
info system
info system
info system
info system
info system
info system
info system
info system
info system
info system
info system
info system
info system
info system
info system
info system
info system
info system
info system
info system
info system
info system
info system
info system
info system
info system
info system
info system
info system
info system
info system
info system
info system
info system
info system
info system
info system
info system
info system
info system
info system
info system
info system
info system
info system
info system
info system
info system
info system
info system
info system
info system
info system
info system
info system
info system
info system
info system
info system
info system
Total wall time: 0:00:11
