LAMMPS (2 Aug 2023 - Update 2)
OMP_NUM_THREADS environment is not set. Defaulting to 1 thread. (src/comm.cpp:98)
  using 1 OpenMP thread(s) per MPI task
info system
units real
atom_style charge
boundary p p p
neighbor 2.0 bin
neigh_modify every 1 delay 0
Total wall time: 0:00:00
