ITEM: TIMESTEP
114
ITEM: NUMBER OF ATOMS
4500
ITEM: BOX BOUNDS pp pp pp
3.3139544115282789e+00 4.3066346886249605e+01
3.3139544115282789e+00 4.3066346886249605e+01
3.3139544115282789e+00 4.3066346886249605e+01
ITEM: ATOMS id type x y z c_stress_pa[1] c_stress_pa[2] c_stress_pa[3] c_stress_pa[4] c_stress_pa[5] c_stress_pa[6] c_pe_pa
1 1 7.72873 8.41155 6.12409 7.38486e+06 1.69433e+06 4.11595e+06 -1.37524e+06 1.51389e+06 -1.47969e+06 -320.932
2 2 8.32316 8.14118 7.64483 -4.06961e+06 -3.13034e+06 3.1813e+06 164871 438060 395146 -117.316
3 2 7.03072 7.06294 5.50349 -2.87067e+06 -425427 -4.10882e+06 1.67979e+06 304769 857299 -115.967
4 1 6.17306 5.88825 6.20184 4.57696e+06 254606 3.65122e+06 -3.20996e+06 2.09647e+06 -2.12657e+06 -318.071
6 1 4.93598 5.76575 8.88452 2.74271e+06 3.41071e+06 2.2075e+06 718219 1.62971e+06 -3.29884e+06 -320.478
7 2 5.94164 6.33921 7.7413 -4.00756e+06 -3.62224e+06 -1.39141e+06 925021 -768373 98944.2 -116.222
8 2 8.76572 8.79089 4.90976 -3.25489e+06 -3.91769e+06 1.88425e+06 -838896 -2.09717e+06 1.4722e+06 -114.545
9 2 4.97727 4.14685 8.82765 -2.34039e+06 -572699 -3.71682e+06 -2.59292e+06 -253925 -670160 -116.176
10 2 6.96744 4.46958 6.21375 -3.79655e+06 -1.86748e+06 -3.07119e+06 -309388 -828261 618146 -119.049
11 2 4.75862 5.53171 5.47021 -2.51563e+06 -1.89516e+06 -2.42601e+06 2.14751e+06 704407 813396 -117.652
12 2 6.48405 8.60007 9.62629 -1.64978e+06 -3.39924e+06 -1.477e+06 1.17113e+06 -2.94626e+06 -799764 -113.99
13 1 8.02379 8.8444 9.1143 5.82798e+06 4.23445e+06 3.02909e+06 -775615 631221 4.27519e+06 -324.661
15 1 3.72728 4.25096 5.31131 -1.66242e+06 7.20422e+06 5.38215e+06 421306 -474004 -169121 -316.78
18 2 7.6316 3.75411 9.18123 1.92913e+06 -2.72545e+06 -4.01872e+06 101939 592639 -336616 -115.754
19 2 6.63116 9.61269 6.37873 -2.74426e+06 432744 -3.73752e+06 -1.73907e+06 -348115 659637 -116.144
21 2 6.67531 4.14113 3.61896 185705 -4.04231e+06 -578435 -661178 3.10194e+06 -272529 -119.677
22 1 9.22944 8.02087 3.52796 3.60143e+06 6.64758e+06 2.96742e+06 1.47265e+06 1.72031e+06 459012 -323.323
23 2 3.4933 6.4912 8.62731 -244388 -3.01079e+06 -3.45224e+06 -1.73691e+06 -802434 883128 -117.764
24 1 7.32023 3.4575 4.96992 2.39219e+06 3.71912e+06 4.586e+06 2.21455e+06 -149213 949584 -314.211
26 2 4.0587 3.59352 3.84984 -1.29381e+06 -4.13467e+06 -1.08263e+06 -610294 -1.88385e+06 1.60635e+06 -117.169
27 2 9.97935 4.36407 7.92319 -1.62477e+06 -2.18023e+06 -3.36189e+06 1.78823e+06 -623705 -1.11736e+06 -113.519
179 1 9.19958 3.32038 8.94151 3.16637e+06 5.41381e+06 6.06235e+06 -2.3898e+06 -623682 -546510 -321.312
29 2 10.4007 6.36734 9.49541 -2.96178e+06 -3.6683e+06 -1.57872e+06 -550626 -1.35984e+06 239083 -113.475
30 2 11.5192 6.49168 7.03508 -1.76914e+06 -1.96042e+06 -2.0262e+06 1.78855e+06 -1.28746e+06 -1.37422e+06 -116.748
31 1 12.8324 7.38611 6.6532 4.16422e+06 4.36767e+06 3.53291e+06 684744 1.307e+06 923163 -324.014
32 2 14.2603 6.61574 6.92708 1.92797e+06 -3.41879e+06 -3.36837e+06 -1.85779e+06 -1.7678e+06 863942 -116.845
33 2 12.6934 8.90731 7.23449 -2.8621e+06 1.47081e+06 -3.77549e+06 -1.60827e+06 98640.1 -756664 -114.595
34 2 12.8454 7.57842 5.02757 -4.48404e+06 -4.52253e+06 -1.95625e+06 -616610 875715 920359 -108.361
35 2 12.447 4.85521 8.88786 -1.17987e+06 -3.82027e+06 -1.92836e+06 -118409 2.15226e+06 -694495 -116.242
36 1 11.0831 5.50254 8.25074 3.58706e+06 4.40428e+06 2.68937e+06 -2.8986e+06 839595 1.19245e+06 -322.081
37 1 15.4657 6.41307 5.82393 4.64615e+06 4.01865e+06 3.0117e+06 331406 -1.10511e+06 -1.55018e+06 -322.929
38 2 15.1524 5.24746 4.74115 -4.36566e+06 -2.67448e+06 -242487 -722585 -787684 1.66621e+06 -116.819
39 2 15.6148 7.86834 5.09103 -5.70849e+06 125435 -4.35968e+06 1.36497e+06 -573274 189695 -109.872
42 1 12.0992 7.00701 3.70324 4.95409e+06 6.70797e+06 -638681 3.04321e+06 -1.32074e+06 -1.08768e+06 -326.662
44 1 15.5229 3.60009 9.37708 2.39988e+06 1.51148e+06 7.8234e+06 -845109 1.14963e+06 2.1964e+06 -324.51
45 2 10.4876 7.05628 3.92448 -840115 -4.0079e+06 -2.7685e+06 -1.19379e+06 -329411 -189377 -113.715
46 2 16.1571 4.4194 8.11728 -2.55264e+06 -2.319e+06 -3.40531e+06 1.54054e+06 -468142 -1.0365e+06 -111.938
47 1 16.3661 9.16046 5.75653 6.94012e+06 2.30706e+06 1.91775e+06 -1.27476e+06 -33793.9 4.1879e+06 -321.899
50 2 12.5487 5.44879 3.4569 -3.68167e+06 -675645 -2.64671e+06 -1.02083e+06 -165139 1.20291e+06 -113.161
224 1 15.6865 4.94807 3.23784 3.90129e+06 3.90868e+06 2.25952e+06 1.20502e+06 487028 -679089 -320.408
48 2 16.422 8.79734 7.34871 -3.24082e+06 -3.20192e+06 -1.09211e+06 -411889 1.34684e+06 -1.67408e+06 -115.747
49 2 22.9003 3.30114 8.8372 -3.15757e+06 -2.73555e+06 -3.59535e+06 174276 -551982 370281 -65.3003
52 2 16.9662 6.14134 6.43046 -1.68104e+06 -4.18037e+06 -2.68684e+06 -1.08045e+06 2.14203e+06 -296263 -112.912
53 2 22.5129 8.69949 4.23593 -2.14109e+06 -2.16623e+06 -1.74724e+06 -1.79721e+06 1.59161e+06 -1.8546e+06 -115.235
54 2 16.9348 9.34452 9.79093 -1.27786e+06 -496083 -3.87283e+06 -2.50639e+06 -1.34095e+06 2.12086e+06 -113.435
55 2 22.4091 6.04484 4.68868 -3.61487e+06 504462 -4.212e+06 452610 572967 -82312.2 -112.269
56 2 17.3512 6.76278 8.8902 -3.40039e+06 2.12065e+06 -4.27185e+06 97798.9 443725 744912 -115.845
57 2 21.1196 5.50082 9.02366 -1.41985e+06 -2.18496e+06 -3.6045e+06 1.68249e+06 1.38539e+06 445547 -109.845
58 1 19.9209 4.39171 9.09031 1.81026e+06 6.01778e+06 5.51475e+06 1.76863e+06 -853884 739825 -330.199
59 1 17.3781 5.47629 7.86816 3.80194e+06 3.37434e+06 5.04346e+06 466964 -2.36383e+06 2.9989e+06 -324.385
60 2 18.8109 4.71377 7.92723 -589024 -2.90964e+06 -2.86397e+06 -1.77233e+06 1.42784e+06 -846989 -113.222
61 1 17.4514 8.36929 8.57836 5.454e+06 1.99403e+06 5.98323e+06 -218057 -1.61581e+06 -2.35086e+06 -322.178
62 2 18.9919 8.67473 8.09335 1.61786e+06 -2.96602e+06 -4.10757e+06 1.49236e+06 359361 364720 -116.169
63 2 17.7792 9.23557 4.93751 -3.02614e+06 -4.67624e+06 741283 -133136 -2.74042e+06 -712177 -113.726
64 1 22.5387 5.80986 9.78894 1.07603e+06 7.8374e+06 6.45155e+06 -530698 186974 202514 -337.892
68 2 21.7882 9.23807 8.15249 1.69761e+06 -3.93547e+06 -3.60616e+06 1.65276e+06 -1.02175e+06 -294968 -115.412
69 1 20.2726 9.45653 8.74675 1.36732e+06 4.3298e+06 6.99979e+06 -1.6333e+06 -1.43585e+06 -14994.1 -320.433
70 1 22.7558 4.45259 4.82177 2.20209e+06 2.07396e+06 8.33496e+06 -1.95888e+06 -1.91898e+06 -970636 -325.503
71 2 21.379 3.58758 4.81906 -1.25629e+06 -2.29319e+06 -4.33384e+06 2.41456e+06 577852 633781 -112.377
94 2 17.196 4.31403 3.24711 -1.32304e+06 -2.74053e+06 -4.4955e+06 -1.46387e+06 -545031 1.11402e+06 -113.145
222 1 23.3057 7.39712 4.8245 4.25041e+06 2.66442e+06 4.95568e+06 647770 -2.64599e+06 1.06337e+06 -322.125
2263 1 28.5126 6.40807 5.94243 4.96455e+06 5.99629e+06 2.35333e+06 2.52069e+06 -2.51172e+06 -2.53221e+06 -326.467
2264 1 25.3889 5.66512 8.54183 4.57183e+06 4.51871e+06 2.80957e+06 -943276 -1.07302e+06 -212167 -330.51
2265 2 25.8938 7.09649 7.89898 -4.69433e+06 -990415 -4.36e+06 -315982 785680 -886048 -111.061
2266 1 25.0884 8.27094 7.1245 5.61162e+06 2.28995e+06 2.96924e+06 495165 94608.8 1.52571e+06 -322.99
2267 2 26.2172 5.63373 9.94655 -1.05174e+06 -3.46143e+06 -3.70233e+06 1.06109e+06 1.29563e+06 1.4608e+06 -113.872
2268 2 25.7699 4.35725 7.65119 -4.23223e+06 -340306 -1.48603e+06 253114 469095 1.95028e+06 -112.448
2269 2 28.3268 7.15612 9.17617 -4.50872e+06 -1.51786e+06 -1.83376e+06 1.12398e+06 -1.94435e+06 -1.93933e+06 -114.284
2270 2 26.9561 6.14437 5.48003 1.26487e+06 -4.87307e+06 -2.97883e+06 -68531.8 3.33415e+06 -142898 -114.086
2271 2 28.7771 7.85398 6.65071 -3.59344e+06 -1.23166e+06 -1.00513e+06 8013.7 613166 1.77956e+06 -116.098
2272 1 28.8653 8.39016 8.21281 5.25789e+06 2.06341e+06 5.4921e+06 1.75263e+06 92313.6 1.09356e+06 -322.488
2273 2 26.1049 8.80633 5.95538 -2.97217e+06 -3.97523e+06 -2.72377e+06 1.9359e+06 -1.52419e+06 -912326 -115.803
2274 1 26.2479 6.49698 4.04152 3.52336e+06 3.91577e+06 4.77385e+06 -1.59131e+06 1.5859e+06 1.55353e+06 -320.511
2276 2 24.6977 7.0895 3.98123 -460619 -1.91681e+06 -3.15097e+06 -1.94483e+06 -320272 -977231 -118.726
2277 2 23.7997 5.94803 8.76011 -1.39719e+06 -5.07844e+06 -2.70629e+06 -1.03349e+06 -1.67485e+06 -317825 -107.249
2278 2 23.7776 7.65479 6.36194 -3.07209e+06 -2.76455e+06 -1.861e+06 319794 1.77465e+06 1.34136e+06 -115.305
2279 2 29.1873 3.90498 9.31453 -2.65918e+06 -3.43468e+06 -547453 -117725 -1.4362e+06 -1.13625e+06 -110.866
2280 2 29.1013 5.26268 7.00239 -1.86784e+06 -2.14765e+06 -1.12622e+06 -1.56613e+06 1.83553e+06 -712315 -114.574
2281 2 28.9419 3.65764 4.47465 -3.24897e+06 -87311.6 -4.00664e+06 1.57685e+06 447699 -691235 -113.524
2282 2 24.551 9.42936 8.14453 -912185 -2.2026e+06 -1.62199e+06 -2.06517e+06 -2.28037e+06 1.19098e+06 -118.921
2283 1 25.4416 3.65147 3.61566 6.69916e+06 5.17828e+06 2.15813e+06 52057 2.87407e+06 -3.05679e+06 -323.613
2284 2 29.4243 6.19571 4.57612 -2.41847e+06 -2.96912e+06 -293258 -1.66606e+06 -2.0534e+06 2.33688e+06 -114
2285 2 23.8375 4.05655 3.63703 -215.213 -3.39648e+06 -3.35895e+06 -1.07396e+06 -1.8968e+06 938954 -114.07
2286 2 23.6133 4.17783 6.18829 -2.5889e+06 -1.81793e+06 -3.77272e+06 -482943 2.22691e+06 -1.32495e+06 -111.559
2288 2 27.1429 7.72927 3.45533 -4.4415e+06 -1.50765e+06 -3.65313e+06 -32984.8 -928095 -1.99286e+06 -113.469
2336 2 28.089 9.82356 8.28065 -3.6058e+06 1.78616e+06 -2.89519e+06 -611493 656235 -1.65061e+06 -117.997
2291 1 30.0867 4.75212 8.23725 7.07835e+06 4.17004e+06 1.96393e+06 329608 1.48611e+06 332858 -327.015
2292 1 30.0882 4.79603 4.09417 7.78302e+06 2.8505e+06 621175 2.01608e+06 138925 2.45302e+06 -319.434
2293 2 30.464 8.53946 8.55764 923201 -3.01446e+06 -3.77306e+06 -1.78743e+06 528955 -73121.5 -113.21
2294 1 31.6147 7.37965 8.65621 -323080 6.86004e+06 6.17688e+06 -476198 -1.14752e+06 413679 -324.469
2295 2 32.1803 7.04705 7.146 -1.79021e+06 -3.5126e+06 -1.15532e+06 505173 -1.49955e+06 266165 -114.751
2296 2 34.4404 6.16951 5.92579 -1.09076e+06 -575294 -2.52673e+06 -2.69727e+06 -1.6155e+06 930313 -113.202
2297 1 33.3831 7.42015 6.09582 6.43785e+06 3.7717e+06 3.83294e+06 266988 3.19365e+06 1.29981e+06 -324.146
2298 2 30.8233 5.98139 9.03577 -2.69006e+06 -1.19524e+06 -3.63742e+06 2.3564e+06 1.21279e+06 886650 -113.208
2299 1 35.588 5.46905 4.97137 7.17751e+06 2.78216e+06 4.08543e+06 2.30979e+06 2.04388e+06 -921287 -324.745
2300 2 34.1416 8.78248 6.63757 -3.71943e+06 1.07493e+06 -2.94155e+06 2.34385e+06 -396699 98181.5 -115.402
2301 2 32.6683 7.90442 4.68765 -1.91838e+06 -1.62682e+06 -1.69956e+06 -1.98039e+06 1.49508e+06 -2.0266e+06 -114.278
2302 2 32.8057 7.73681 9.71461 176782 -3.90474e+06 -1.4554e+06 240649 2.58624e+06 -734199 -116.01
2303 2 31.4081 4.51876 5.04469 -1.27765e+06 -2.86989e+06 -2.43114e+06 -1.26935e+06 1.68393e+06 -1.65869e+06 -116.063
2304 2 35.4511 8.00053 9.46776 -2.05333e+06 -246948 -3.38895e+06 3.9698e+06 41142.6 -856699 -114.124
2306 2 34.0934 5.57776 9.2677 -2.89425e+06 -203222 -4.86951e+06 1.11048e+06 552034 -1.96566e+06 -110.894
2307 1 32.3053 9.37603 4.01467 4.9982e+06 7.93849e+06 1.81338e+06 1.52878e+06 -2.46642e+06 -10084.9 -323.587
2310 2 34.8486 4.78556 3.64539 -2.92788e+06 -2.47558e+06 -1.16408e+06 165402 19761.5 2.26668e+06 -115.091
2311 2 31.2043 3.76187 7.54688 -2.85681e+06 -2.03848e+06 -1.15816e+06 -1.26826e+06 -474375 2.25219e+06 -115.441
2313 2 30.6949 9.77548 4.06057 3.0158e+06 -2.32941e+06 -2.53882e+06 -2.67248e+06 -1.17471e+06 295705 -114.615
2314 2 35.979 9.7659 5.03409 -573656 -3.13802e+06 -3.16955e+06 880283 -1.86734e+06 118491 -113.954
2316 2 36.4057 4.17963 5.58778 -2.53313e+06 596221 -3.0477e+06 -2.25528e+06 -655889 197116 -113.339
2317 2 36.6519 6.6187 4.48223 -2.639e+06 -882103 -2.38942e+06 1.56287e+06 -1.9183e+06 -1.23177e+06 -113.889
2318 2 39.6984 4.42753 6.81427 -3.94939e+06 -3.14822e+06 1.53374e+06 -52420 -309333 -268884 -115.837
2319 2 40.7148 7.46916 8.97054 -2.49483e+06 489715 -4.07131e+06 -1.1398e+06 -1.1833e+06 1.26322e+06 -118.349
2320 1 41.8036 6.31586 9.34599 740865 3.55143e+06 5.21911e+06 -295800 1.24815e+06 -803528 -315.524
2321 1 39.9027 4.15034 8.42274 6.94859e+06 3.42891e+06 1.89555e+06 -636460 2.44471e+06 -3.20614e+06 -320.151
2322 1 40.2759 8.85758 9.74098 854437 3.38266e+06 8.26262e+06 2.0114e+06 377600 1.92363e+06 -317.219
2323 2 41.3007 4.81384 8.95819 -2.99877e+06 -1.9058e+06 -1.88506e+06 1.45297e+06 610970 1.69983e+06 -118.29
2324 1 40.4206 4.54526 5.33442 4.75646e+06 4.00955e+06 2.04545e+06 -544414 -659969 2.09603e+06 -319.704
2325 2 39.6822 5.61916 4.35087 -3.25109e+06 -2.58551e+06 -122369 -639212 870614 -1.71336e+06 -116.001
2326 2 38.7495 4.92457 9.31299 -2.63557e+06 -2.11386e+06 -662084 -682503 -1.33611e+06 1.8911e+06 -116.298
2327 2 41.9967 4.88827 5.56086 97362.6 -3.76287e+06 -2.31945e+06 -1.30484e+06 -134874 -19407 -117.451
2330 2 39.0641 9.52716 8.8397 -1.13969e+06 -2.07005e+06 -3.00822e+06 -1.46795e+06 1.23439e+06 -1.85534e+06 -114.422
2332 2 41.6057 9.8014 9.92129 1.15324e+06 -2.13255e+06 -3.47988e+06 867004 1.59458e+06 -234219 -118.166
25 1 6.1697 15.9441 3.50178 3.50054e+06 4.20272e+06 5.00222e+06 -1.36258e+06 -833962 -482158 -324.594
51 2 3.17472 11.0562 6.66315 -1.2409e+06 -4.11729e+06 687025 -390952 2.51904e+06 -496740 -113.79
74 2 3.39356 12.8508 8.64462 -3.93585e+06 -891810 -1.67956e+06 281933 -361650 2.17432e+06 -112.88
76 1 3.69872 14.4218 4.308 5.93445e+06 2.421e+06 6.74613e+06 -1.07242e+06 -126980 2.1579e+06 -329.141
77 2 8.35195 10.4353 8.88438 -2.43314e+06 -1.08892e+06 -2.99985e+06 1.80051e+06 -587630 -1.21813e+06 -114.595
78 2 4.25936 10.4192 9.09912 -4.52858e+06 -2.74765e+06 -282500 569936 -631998 -1.75663e+06 -112.246
79 1 4.11257 11.5548 7.92529 5.54268e+06 5.77667e+06 2.15188e+06 736758 1.93687e+06 -70485.7 -326.737
80 1 6.63565 11.2607 6.30621 2.48003e+06 6.47033e+06 4.21707e+06 1.86382e+06 726540 1.48649e+06 -328.095
81 2 5.61895 11.9174 7.40747 234154 -3.62703e+06 -3.179e+06 -919387 -1.76995e+06 745422 -112.987
82 2 8.18741 11.6815 6.62489 -384173 -3.4367e+06 -3.10135e+06 177240 2.65037e+06 391383 -113.684
83 2 6.12131 11.7241 4.83645 -3.01498e+06 -3.81831e+06 -785796 -428148 -177808 -1.41778e+06 -108.666
84 2 8.92713 14.9851 7.80413 -3.197e+06 -219530 -3.54641e+06 -1.39276e+06 -530037 -472022 -115.274
85 2 4.58798 15.3 9.32135 -748468 -250662 -3.41137e+06 2.46285e+06 612880 1.69793e+06 -118.503
86 1 9.26103 11.2468 7.79473 2.11534e+06 1.49372e+06 8.01608e+06 -3.31662e+06 -11476 992459 -323.623
87 2 5.30227 14.7712 4.24296 584931 -2.52419e+06 -3.70511e+06 2.65094e+06 -1.17669e+06 -2.14842e+06 -114.635
88 2 8.16086 13.1278 3.90542 -1.7538e+06 -2.01117e+06 -4.50941e+06 1.91238e+06 -125817 -245433 -108.394
89 1 6.92692 12.1233 3.46279 6.18344e+06 4.55322e+06 4.26984e+06 -252440 1.8555e+06 1.18e+06 -351.691
90 2 7.80594 15.6573 3.43978 903949 -2.73482e+06 -3.91485e+06 -1.70104e+06 -386735 554076 -115.434
95 1 3.39268 14.1993 9.57883 5.20159e+06 3.22955e+06 4.49928e+06 1.1491e+06 2.61776e+06 -3.7934e+06 -317.613
150 1 8.63489 16.5421 7.44235 5.0515e+06 3.03057e+06 1.82617e+06 1.76424e+06 -1.20504e+06 651883 -321.978
91 2 10.0052 12.5636 8.39598 -2.63583e+06 176214 -4.39827e+06 1.80636e+06 317306 99129.9 -116.822
97 2 10.3813 10.2437 7.13843 400993 -2.85905e+06 -3.60357e+06 -613854 -1.86895e+06 407253 -115.457
98 1 10.225 14.009 7.68174 4.17815e+06 832768 5.28912e+06 394349 -401737 1.09433e+06 -322.911
99 2 10.4528 13.6539 6.09629 -4.35892e+06 -2.80098e+06 -233530 -483377 -786332 -243984 -115.583
100 2 15.5467 10.5331 5.3937 -2.23195e+06 -1.25742e+06 -1.98429e+06 -1.21053e+06 902576 -2.48893e+06 -116.066
101 1 11.9563 10.27 6.66336 6.12587e+06 2.77623e+06 3.72717e+06 942417 437847 -1.45795e+06 -324.43
102 2 12.0236 10.4419 5.03752 -3.4783e+06 -2.03765e+06 -7046.49 393100 -536656 -1.8571e+06 -115.704
103 1 11.3755 14.2267 4.87599 6.39381e+06 1.99032e+06 3.88937e+06 -188783 888322 -369019 -325.395
104 2 12.7509 11.5365 7.34352 -2.00996e+06 -2.51234e+06 -1.26526e+06 652997 2.17849e+06 2.1757e+06 -117.184
105 2 11.9799 10.7689 9.65263 -2.06817e+06 -3.25439e+06 -1.9582e+06 2.22128e+06 -1.71479e+06 -1.35973e+06 -114.32
106 2 14.5883 10.7449 9.22189 1.00953e+06 -2.78426e+06 -2.69045e+06 -1.91671e+06 745919 -524370 -115.576
107 2 11.4982 14.8332 8.29022 -922897 -2.72047e+06 -2.59807e+06 60125.3 1.83902e+06 437970 -116.929
108 1 13.2071 11.6007 8.91372 4.20269e+06 5.30267e+06 2.99163e+06 -789097 -1.22689e+06 -430376 -319.904
109 2 14.1555 15.3905 8.15542 290189 -2.58836e+06 -4.37786e+06 1.93879e+06 -1.00222e+06 -587222 -114.327
110 2 13.3385 13.1661 9.39931 -2.61316e+06 2.25e+06 -3.40197e+06 -541856 457668 -117349 -119.467
111 1 12.9308 14.733 9.04706 1.04891e+06 3.604e+06 7.66008e+06 -3.80843e+06 -2.59807e+06 -2.41492e+06 -321.8
113 1 15.7327 15.4771 8.62856 2.0611e+06 5.66877e+06 3.70642e+06 1.63267e+06 4.98847e+06 447931 -318.307
114 2 12.0989 15.6086 5.36702 -3.55123e+06 34190.7 -3.31083e+06 1.59007e+06 -472625 -248526 -113.073
115 1 12.4758 11.5708 3.93802 3.71471e+06 6.52269e+06 1.42052e+06 1.56137e+06 -584324 -213069 -326.375
116 2 12.5013 13.075 4.58486 -2.9065e+06 220208 -3.73877e+06 -1.97133e+06 -384581 160623 -113.854
117 1 16.188 10.8023 9.60655 4.82597e+06 3.9202e+06 4.3847e+06 1.30171e+06 1.65233e+06 -514211 -322.989
118 1 15.4577 11.3137 3.93379 -182991 5.40439e+06 7.7287e+06 2.40702e+06 -725038 806541 -327.678
119 2 15.9268 12.8599 4.16418 -2.06517e+06 -890596 -2.8004e+06 1.27595e+06 1.25386e+06 1.30043e+06 -109.168
120 2 16.226 15.1121 5.6251 -3.85817e+06 -301351 -3.80136e+06 -79471.6 135483 885291 -109.597
122 2 10.391 14.6213 3.61651 748725 -3.04e+06 -2.27356e+06 -807974 2.20362e+06 -455062 -115.971
123 2 16.2825 13.9418 8.49145 -2.94045e+06 -903796 -3.11634e+06 -1.10104e+06 -1.61243e+06 650688 -115.873
147 2 16.6044 16.499 7.72005 -2.76096e+06 -2.84984e+06 -1.13317e+06 -180517 -1.6366e+06 -2.22081e+06 -116.953
73 1 17.9935 9.88848 3.44343 1.58256e+06 6.62595e+06 3.19489e+06 -592885 4.18068e+06 -1.07215e+06 -320.248
128 2 18.842 11.2489 3.72843 -2.09512e+06 -3.22454e+06 -3.79322e+06 772535 52428.3 1.11134e+06 -112.298
129 2 17.0447 11.4685 8.36756 -2.47218e+06 -2.43504e+06 -2.47473e+06 1.25103e+06 -1.03646e+06 -1.34023e+06 -113.798
130 1 17.0197 13.8257 4.9458 8.30433e+06 2.52381e+06 5.42717e+06 -1.31683e+06 -119908 -2.19771e+06 -349.217
131 2 22.5474 13.9696 6.55558 -2.54875e+06 -3.34857e+06 -1.85194e+06 319813 2.2194e+06 -1.1931e+06 -111.675
132 2 22.04 14.4516 4.09573 -3.78022e+06 -3.87971e+06 -3.8071e+06 1.29941e+06 -3.0616e+06 -606932 -106.988
133 1 20.1528 12.543 9.30617 1.96136e+06 5.37544e+06 4.82714e+06 199711 -1.17663e+06 -599537 -319.22
134 2 18.8432 13.3797 8.78337 -148502 -3.63e+06 -1.67738e+06 -862718 2.91149e+06 -1.01095e+06 -115.485
135 2 20.0409 11.0835 8.56638 -2.93797e+06 -4882.31 -3.71892e+06 415645 218946 111736 -116.888
136 2 17.6454 13.0437 6.28842 -3.28488e+06 -2.8531e+06 1.90119e+06 -39690.3 1.10236e+06 -288906 -112.407
137 1 17.4968 12.9825 7.92324 4.41434e+06 3.39805e+06 5.67782e+06 1.67379e+06 -694095 3.01567e+06 -323.833
138 2 21.5271 13.3134 8.85243 -1.11517e+06 -3.50916e+06 -3.36516e+06 553865 -798989 -283292 -114.286
139 2 20.1313 14.876 6.01299 -1.64179e+06 727134 -4.49993e+06 -2.85576e+06 -1.38596e+06 9630.29 -113.967
140 2 20.8897 12.3663 5.05779 -3.5445e+06 -975400 -381609 502369 1.01411e+06 3.52724e+06 -114.403
141 1 21.323 13.8938 5.45783 6.2057e+06 2.5845e+06 4.23916e+06 -1.01397e+06 -301779 958567 -328.765
142 2 18.0972 14.4396 3.98064 -3.39339e+06 -1.51321e+06 -1.29067e+06 509855 153243 -13622.5 -66.7078
143 1 22.8713 13.1499 7.92407 4.41658e+06 3.86083e+06 4.15216e+06 -1.76038e+06 -1.43355e+06 1.45702e+06 -326.461
145 1 20.3658 11.8419 3.59897 4.87013e+06 3.29516e+06 5.51379e+06 -1.26476e+06 -2.508e+06 -1.25215e+06 -328.308
146 1 19.8134 16.4475 5.66218 3.02496e+06 3.55089e+06 7.35921e+06 -669987 2.4954e+06 2.01519e+06 -326.874
149 1 23.1217 10.1651 8.40237 3.81817e+06 3.94227e+06 4.26864e+06 2.06416e+06 2.4241e+06 -1.33446e+06 -318.76
220 2 23.0537 11.5611 7.53968 -3.36322e+06 1.3203e+06 -3.67813e+06 -551850 -373733 -214072 -114.628
2337 2 27.8446 10.206 4.27838 1.93826e+06 -4.80065e+06 -3.71466e+06 368695 -505067 -880059 -117.108
2338 1 26.4519 10.1986 5.1711 2.8251e+06 6.66869e+06 1.39385e+06 -2.6221e+06 -2.26217e+06 919538 -315.703
2339 2 24.1348 13.758 8.77772 -2.63968e+06 -645235 -1.85943e+06 1.80115e+06 1.3931e+06 1.71612e+06 -112.984
2341 2 25.1434 10.4089 4.21795 -1.38962e+06 -3.73543e+06 -584878 669115 2.15345e+06 862932 -120.115
2342 2 26.8406 11.2222 6.38021 -1.71622e+06 -4.07469e+06 -1.16437e+06 841074 2.47058e+06 686009 -115.002
2343 1 28.1978 11.1413 7.30079 7.92125e+06 3.93127e+06 -264448 -806450 -2.09739e+06 -3.24282e+06 -321.274
2344 1 26.1154 14.8905 5.0081 3.52106e+06 5.61011e+06 4.38652e+06 1.50157e+06 -563891 -1.60999e+06 -323.105
2345 2 26.2073 15.3151 9.27563 -2.2079e+06 -5.0224e+06 -2.47111e+06 764720 -1.44765e+06 -927783 -111.539
2346 2 26.1901 14.8616 6.6435 -2.98751e+06 -3.78126e+06 221497 577627 953692 1.01716e+06 -112.727
2347 1 24.7207 14.8787 9.84091 3.43699e+06 5.69346e+06 3.90246e+06 -182704 -995302 155761 -325.442
2348 2 24.6445 14.5222 4.40491 -1.28271e+06 -3.6411e+06 -3.05518e+06 -684248 1.36612e+06 -59460.7 -112.674
2349 2 28.4494 12.5271 8.0929 -4.1561e+06 -1.49099e+06 -1.1638e+06 265924 410735 1.94067e+06 -115.192
2350 1 26.7065 15.8595 7.82555 4.12426e+06 5.12603e+06 1.9219e+06 -866099 -577349 1.48799e+06 -323.054
2351 1 28.7685 12.8758 9.65508 6.3514e+06 2.52219e+06 2.37538e+06 991899 -1.05886e+06 -1.94924e+06 -321.211
2352 2 27.1431 13.7085 4.46396 -2.31804e+06 -9684.95 -2.9788e+06 -2.48692e+06 -741211 1.42779e+06 -114.325
2353 1 29.4089 10.6989 4.58075 2.20901e+06 7.00947e+06 5.94922e+06 1.57703e+06 1.9737e+06 656108 -324.289
2354 1 29.3445 15.8329 9.22196 3.52769e+06 5.4449e+06 3.66797e+06 -1.6331e+06 1.51564e+06 1.04853e+06 -322.989
2355 2 29.4107 10.8247 6.22632 -2.76537e+06 -3.52789e+06 402676 -312282 -1.96649e+06 467248 -114.648
2356 2 29.4137 12.2227 3.95528 -3.27825e+06 -12276.9 -3.24302e+06 -2.25781e+06 144738 -1.67996e+06 -112.271
2357 2 28.3381 15.9389 7.91815 214258 -2.95587e+06 -1.91659e+06 -780837 2.51998e+06 -655487 -118.466
2360 2 26.303 16.5165 4.61157 -2.24402e+06 2.4471e+06 -3.38433e+06 -1.80119e+06 845212 27671.5 -115.862
2361 2 29.6246 14.2678 9.66098 -3.19414e+06 585312 -3.27518e+06 138781 -589314 -1.9932e+06 -117.915
2362 1 23.3488 15.3653 3.8948 2.86484e+06 3.40077e+06 4.23348e+06 -798954 2.01986e+06 131931 -324.948
2365 1 28.3658 13.3771 3.41649 2.57118e+06 4.09736e+06 6.69473e+06 -702834 -730906 709114 -321.242
2479 2 29.2182 14.785 3.3526 -50153.4 -1.06579e+06 -3.90721e+06 2.88061e+06 973141 1.03891e+06 -116.702
2368 1 34.5954 10.1449 5.81781 5.21269e+06 3.35857e+06 3.82123e+06 -2.333e+06 1.54276e+06 -2.88297e+06 -323.13
2369 2 33.2723 10.405 4.86557 539216 -3.89048e+06 -2.96682e+06 1.03908e+06 1.95708e+06 654606 -113.83
2370 2 35.733 15.5677 3.7107 -4.00694e+06 -1.2436e+06 -979996 -670558 273609 -2.61184e+06 -118.469
2371 2 34.9666 13.0482 3.81737 -3.46409e+06 -1.78261e+06 -732801 -533295 -1.05554e+06 1.36346e+06 -115.331
2375 2 34.5051 13.5462 8.49048 -2.28887e+06 -1.74152e+06 -103875 598557 2.31954e+06 1.85172e+06 -120.175
2376 2 34.8384 11.5064 6.67701 -4.30762e+06 -549494 -2.28906e+06 -379337 -691429 2.13759e+06 -114.859
2377 1 33.8042 12.3394 7.62288 7.78545e+06 3.84905e+06 -146923 1.1882e+06 -1.31182e+06 56349.4 -320.066
2378 2 31.352 15.1694 6.58957 -2.91093e+06 -1.61056e+06 -1.80928e+06 -789759 -1.00559e+06 1.98464e+06 -115.308
2379 1 32.313 14.1579 5.71071 3.41677e+06 4.22277e+06 4.64582e+06 2.45254e+06 -1.92146e+06 816502 -324.177
2380 1 35.2019 14.3957 4.72332 2.58996e+06 5.32618e+06 3.69735e+06 -609198 -406881 645335 -323.271
2381 2 33.7794 14.8358 5.41344 42382.3 -3.90947e+06 -2.90908e+06 -584119 -1.96139e+06 -615694 -116.346
2382 2 32.5861 12.8578 6.66183 -2.35372e+06 -2.47997e+06 -906047 -952418 1.89142e+06 -1.76934e+06 -115.548
2383 2 33.275 11.2454 8.72779 -3.55554e+06 -2.52956e+06 -797907 -238725 -121645 -1.3786e+06 -114.629
2384 2 31.622 13.9805 4.23792 -2.4196e+06 -3.95114e+06 146947 -1.51601e+06 1.92336e+06 -1.87339e+06 -113.187
2387 2 36.3016 14.0306 5.88117 -816783 -3.65531e+06 -2.08364e+06 -414482 1.88668e+06 -355217 -116.167
2388 1 31.6179 16.5723 7.41183 2.97985e+06 5.77392e+06 3.69149e+06 -1.46052e+06 1.79899e+06 81919.8 -323.293
2389 2 31.3628 16.5138 3.99381 -3.73293e+06 -736192 -2.26431e+06 763947 310335 1.49144e+06 -116.631
2390 2 33.2353 16.6005 7.75565 396311 -2.64025e+06 -2.97963e+06 804954 647064 -339337 -116.078
2434 2 35.667 16.5605 8.82791 -4.08573e+06 -3.33443e+06 628436 -610998 1.03305e+06 -713048 -114.765
2435 2 30.7488 16.5547 8.80189 -604826 -3.28949e+06 -1.15691e+06 1.17492e+06 -2.56288e+06 -431739 -115.338
2480 1 30.8229 15.0911 3.32743 3.88039e+06 4.54185e+06 3.83742e+06 -1.83368e+06 1.13717e+06 -60705.1 -321.868
2366 2 42.8491 13.3297 5.38769 -1.39715e+06 -2.61628e+06 -2.46807e+06 2.68342e+06 -811234 -2.42734e+06 -111.795
2393 2 36.5976 10.4708 8.78872 586031 -1.43493e+06 -3.1165e+06 1.96934e+06 -2.70114e+06 -1.30877e+06 -118.938
2394 2 42.6806 15.8133 4.73297 -2.24466e+06 -1.93133e+06 -4.54802e+06 -1.93742e+06 425825 -14599 -107.396
2395 1 36.9227 10.2676 3.77902 5.27893e+06 2.65213e+06 6.21802e+06 585547 -359638 -867747 -325.906
2397 2 38.3116 10.9453 6.68522 -2.84901e+06 -2.86253e+06 -264811 308922 -1.66716e+06 -1.37936e+06 -114.431
2398 1 38.1507 10.7991 8.31652 5.63509e+06 3.37247e+06 4.46356e+06 573419 924759 2.62938e+06 -319.269
2399 2 37.8181 14.577 8.02628 -3.32775e+06 -2.88268e+06 1.04687e+06 14111.1 314808 -1.54895e+06 -116.088
2400 1 37.7715 14.563 6.37463 5.97321e+06 2.42974e+06 4.7495e+06 2.39829e+06 -2.13427e+06 1.4966e+06 -322.586
2401 1 38.9772 11.8503 5.4721 4.20359e+06 6.26134e+06 4.81521e+06 121791 411783 -914491 -320.25
2402 2 38.8673 13.453 5.84289 -3.0723e+06 691322 -2.43252e+06 -1.5655e+06 -570409 988081 -116.328
2403 1 38.0713 13.6617 9.36951 3.34612e+06 5.04966e+06 5.04498e+06 -983991 -509179 -1.75341e+06 -318.628
2404 2 38.7219 12.2167 8.92032 -3.17468e+06 1.27842e+06 -3.19102e+06 164336 466499 831013 -118.718
2405 2 40.6103 11.5332 5.28868 3.25434e+06 -3.66516e+06 -2.81511e+06 642445 -197416 -120590 -113.24
2406 1 42.2617 11.7931 5.34177 5.58374e+06 6.88008e+06 3.07036e+06 39934.4 -265485 136644 -323.989
2407 2 41.6339 14.8278 9.36885 854572 -3.97035e+06 -3.89314e+06 -191605 -528239 323297 -114.274
2409 2 38.0308 11.4321 4.1724 271910 -1.26986e+06 -2.54792e+06 1.82847e+06 2.32864e+06 2.00075e+06 -116.027
2410 2 37.9476 16.0796 5.76196 -3.03458e+06 1.77503e+06 -3.15459e+06 -1.30976e+06 99985.1 -1.80083e+06 -115.229
2411 2 42.8881 11.2708 3.90039 -4.3084e+06 -3.9874e+06 104380 48676.8 -664615 53981 -108.73
152 2 7.60152 16.6466 6.19753 -3.38789e+06 -2.78341e+06 -2.30877e+06 -737558 1.08748e+06 -1.15287e+06 -113.748
153 2 8.0079 17.251 8.76406 -4.19954e+06 -5.14066e+06 -811645 -483425 -453809 690945 -113.503
158 2 5.95601 17.338 4.34884 -3.35386e+06 -1.0584e+06 -2.64244e+06 573952 800671 2.59957e+06 -113.216
159 1 4.17662 21.2666 7.05034 4.56205e+06 7.26057e+06 2.97379e+06 1.42704e+06 944091 -238588 -327.861
160 2 6.46939 20.7107 4.27964 -954609 -3.65469e+06 -1.20724e+06 805462 2.93899e+06 560539 -114.189
162 1 4.29429 19.3046 9.55668 4.95371e+06 3.37112e+06 4.81232e+06 -506345 1.03147e+06 2.38388e+06 -321.055
163 2 5.15448 17.9412 9.24891 -3.74878e+06 861719 -3.55074e+06 -1.49718e+06 387912 -2.07203e+06 -114.102
164 1 7.10682 17.93 5.32877 3.737e+06 1.28428e+06 4.25905e+06 -288885 -2.70553e+06 -1.72049e+06 -322.264
165 2 6.74444 19.1803 6.29778 -3.06357e+06 349623 -3.93647e+06 -985765 141764 1.17949e+06 -114.614
166 2 5.73111 21.6464 6.63643 1.66295e+06 -3.62029e+06 -3.13659e+06 -1.05016e+06 -1.75048e+06 486025 -113.206
167 2 8.48231 21.1297 6.1657 2.47317e+06 -2.79387e+06 -3.35611e+06 -527421 137015 310778 -115.646
168 1 6.88791 20.771 5.88297 1.53629e+06 5.18994e+06 7.09596e+06 1.11746e+06 598201 -797137 -324.169
169 2 8.31231 18.4866 4.32343 -1.87504e+06 -4.31764e+06 -1.36729e+06 980144 -1.36072e+06 104240 -112.164
171 2 4.24297 20.5998 8.55022 -3.99314e+06 -2.27877e+06 -3.143e+06 -749893 -319311 -2.08967e+06 -108.353
172 2 4.32298 22.2102 4.09498 -2.53656e+06 -3.36425e+06 -3.31397e+06 -2.10275e+06 -457126 -354437 -113.646
173 2 3.75796 19.993 6.0772 -3.18582e+06 -1.61141e+06 -1.61448e+06 1.52779e+06 903272 2.04075e+06 -113.599
175 2 3.88235 19.8756 3.50695 2.22508e+06 -3.42879e+06 -2.43836e+06 1.72668e+06 -2.34703e+06 -1.28962e+06 -115.538
176 1 9.79959 18.7863 3.66221 3.65845e+06 6.70446e+06 1.87369e+06 -266085 -1.10894e+06 -2.06223e+06 -323.675
177 2 9.61481 19.4449 8.77555 -3.35759e+06 -3.77985e+06 -1.36461e+06 -1.37382e+06 -1.02407e+06 1.08433e+06 -109.967
178 2 9.93038 17.4582 7.01229 -2.55464e+06 333585 -3.14696e+06 2.07524e+06 48819.1 -325633 -118.962
180 2 10.1732 20.2812 4.22401 -3.87188e+06 -90723.9 -1.88358e+06 -434769 -547424 2.39501e+06 -114.365
181 2 12.4414 23.0353 8.61863 -1.30988e+06 -248526 -3.22571e+06 -2.4888e+06 -1.63259e+06 1.15507e+06 -117.263
182 1 10.0743 20.9851 5.70532 6.90397e+06 424179 6.70769e+06 -880359 -1.06678e+06 462219 -323.416
185 1 15.6621 22.7621 6.90848 4.57088e+06 3.88732e+06 1.82244e+06 37731.5 787994 1.25643e+06 -317.187
186 2 10.8237 17.5908 4.13805 -792066 -1.8443e+06 -3.54997e+06 -1.88161e+06 696728 -65720.8 -113.78
188 1 15.8616 21.0754 4.48499 5.57775e+06 2.48766e+06 4.58974e+06 -71239.4 1.2904e+06 768944 -319.377
189 1 12.2937 17.072 4.67049 4.45796e+06 2.75476e+06 4.98553e+06 -891684 -729825 -1.8218e+06 -326.041
190 2 10.9467 19.9629 6.66389 -2.45388e+06 -765962 -2.82248e+06 -659895 2.39264e+06 -2.12138e+06 -113.937
191 2 10.6981 22.5032 5.73563 -4.00308e+06 1.94051e+06 -3.29981e+06 80174 154994 -253712 -114.062
192 2 12.937 20.422 9.13589 -3.66753e+06 760189 -3.93742e+06 -401434 -321708 228635 -117.116
193 1 10.6746 18.7403 7.72649 2.14724e+06 6.51706e+06 3.38623e+06 -1.94601e+06 -1.21235e+06 501734 -322.222
194 2 14.4988 18.7786 7.69246 -3.16531e+06 -3.02007e+06 1.19087e+06 -330070 -2.4642e+06 -482973 -116.962
196 2 12.965 18.1554 5.69113 -742793 -3.16966e+06 -3.06489e+06 1.73204e+06 1.45697e+06 1.08103e+06 -114.52