ITEM: TIMESTEP
0
ITEM: NUMBER OF ATOMS
4500
ITEM: BOX BOUNDS pp pp pp
3.3139544115282789e+00 4.3066346886249605e+01
3.3139544115282789e+00 4.3066346886249605e+01
3.3139544115282789e+00 4.3066346886249605e+01
ITEM: ATOMS id type x y z c_stress_pa[1] c_stress_pa[2] c_stress_pa[3] c_stress_pa[4] c_stress_pa[5] c_stress_pa[6] c_pe_pa
1 1 7.78109 8.53721 6.13966 6.03262e+06 1.78038e+06 5.18168e+06 -1.13698e+06 2.10024e+06 -1.75844e+06 -317.161
2 2 8.25165 8.23435 7.72928 -4.16942e+06 -2.82357e+06 3.75584e+06 -206952 -659456 1.08036e+06 -112.373
3 2 7.06331 7.18845 5.54125 -2.49381e+06 1.23922e+06 -4.24195e+06 1.85415e+06 64437.3 786163 -117.195
4 1 6.18846 6.00297 6.26078 4.51407e+06 745259 3.42751e+06 -2.79209e+06 2.7461e+06 -2.83564e+06 -312.086
6 1 4.87449 5.78368 8.81305 3.44636e+06 689712 2.01103e+06 1.49525e+06 2.08815e+06 -3.43101e+06 -319.934
7 2 6.04028 6.4134 7.81626 -3.21514e+06 -4.19359e+06 -1.81178e+06 1.41394e+06 -1.14581e+06 -581413 -112.313
8 2 8.84204 8.82284 4.9225 -3.59381e+06 -4.82498e+06 708040 -559595 -1.45862e+06 436522 -116.398
9 2 4.94057 4.22122 8.79317 -2.79546e+06 -3.99676e+06 -4.43016e+06 -2.71403e+06 -293768 -2.22835e+06 -115.106
10 2 6.91952 4.54264 6.35032 -3.57651e+06 -2.08969e+06 -3.24427e+06 -139262 -528563 -549697 -120.275
11 2 4.72529 5.6831 5.61626 -3.10222e+06 -2.39828e+06 -2.36043e+06 1.42735e+06 751740 1.0334e+06 -121.616
12 2 6.24472 8.70374 9.53398 -293294 -2.82828e+06 -698226 2.7465e+06 -2.95979e+06 -1.99925e+06 -112.988
13 1 7.80253 9.02609 9.13426 7.01845e+06 6.47589e+06 3.48626e+06 -442117 1.00515e+06 3.94703e+06 -325.672
15 1 3.80895 4.37525 5.42044 -2.5936e+06 5.76846e+06 6.02497e+06 -600364 -1.56838e+06 647009 -317.367
18 2 7.60016 3.77667 9.16176 523207 -3.80558e+06 -4.2755e+06 1.08908e+06 853896 -723883 -113.335
19 2 6.81098 9.82568 6.4204 -3.25934e+06 -1.28596e+06 -3.50273e+06 -1.92065e+06 -584909 1.16063e+06 -119.139
21 2 6.66208 4.07362 3.72834 36989.4 -3.42569e+06 479218 -90984.2 3.54698e+06 835123 -122.91
22 1 9.34147 8.12834 3.56845 1.32229e+06 5.76194e+06 2.7988e+06 2.43597e+06 1.8677e+06 -669622 -323.483
23 2 3.46885 6.54249 8.52197 1.20783e+06 -2.79864e+06 -2.92321e+06 -1.19556e+06 -2.03671e+06 702313 -117.526
24 1 7.29092 3.53775 5.12822 2.53964e+06 3.49536e+06 4.74141e+06 3.2045e+06 -240355 518546 -312.353
26 2 4.09593 3.66288 3.95022 -1.31167e+06 -3.22858e+06 -213601 -1.25311e+06 -2.26034e+06 2.60755e+06 -115.825
27 2 9.91507 4.45539 7.95057 -2.34268e+06 -1.08927e+06 -3.20651e+06 1.79291e+06 -924145 -1.22075e+06 -115.355
179 1 9.13403 3.39153 8.96532 1.61125e+06 6.22051e+06 6.26149e+06 -1.61686e+06 47559 -451207 -321.174
29 2 10.3471 6.54714 9.52832 -2.48089e+06 -2.37195e+06 -1.29506e+06 -822763 -2.04356e+06 1.02059e+06 -109.639
30 2 11.4534 6.5577 7.05802 -892382 -2.1247e+06 -1.71619e+06 1.50262e+06 -1.46948e+06 -1.99223e+06 -120.18
31 1 12.7927 7.40789 6.66685 5.90173e+06 4.00633e+06 2.216e+06 187696 1.23502e+06 1.42397e+06 -311.122
32 2 14.3212 6.65292 7.03893 3.34209e+06 -2.59465e+06 -3.17358e+06 -1.93955e+06 -212075 222823 -118.658
33 2 12.6411 8.89949 7.35974 -3.04013e+06 2.11485e+06 -2.9315e+06 -1.69118e+06 481205 -418062 -116.108
34 2 12.9293 7.67206 5.09813 -4.515e+06 -3.96087e+06 -2.06841e+06 -654525 1.03039e+06 632908 -117.955
35 2 12.3111 4.89752 8.97139 -2.13483e+06 -4.30839e+06 -1.83737e+06 173362 1.66244e+06 -1.10188e+06 -117.119
36 1 11.0261 5.55916 8.26688 2.45477e+06 4.76668e+06 3.11481e+06 -3.54013e+06 455654 2.18587e+06 -320.51
37 1 15.458 6.39913 5.93996 3.00466e+06 5.34244e+06 3.12382e+06 1.09401e+06 -707813 -2.0752e+06 -320.333
38 2 15.0954 5.27769 4.79423 -3.7915e+06 -2.63852e+06 -186486 -822937 -765374 1.83204e+06 -119.689
39 2 15.7128 7.82712 5.10116 -5.3425e+06 1.2177e+06 -3.50805e+06 1.84749e+06 -725388 -389945 -108.111
42 1 12.2199 7.15484 3.72985 5.59919e+06 6.78526e+06 -1.22095e+06 3.12387e+06 -2.00947e+06 -537193 -316.172
44 1 15.4414 3.63289 9.3029 2.83122e+06 960679 7.49645e+06 -2.12752e+06 1.86209e+06 2.83869e+06 -322.458
45 2 10.588 7.23224 3.96237 -1.53117e+06 -4.76096e+06 -2.68297e+06 626073 -544884 -300884 -116.48
46 2 16.1588 4.45758 8.14589 -2.34641e+06 -3.11241e+06 -5.44847e+06 1.3861e+06 333843 869963 -109.644
47 1 16.4384 9.1804 5.71191 7.0068e+06 2.69981e+06 467282 -1.37287e+06 739239 5.51062e+06 -320.83
50 2 12.5026 5.53858 3.46602 -4.18471e+06 793467 -1.39039e+06 -630487 352668 2.07846e+06 -114.163
224 1 15.7191 5.05794 3.34 5.89155e+06 5.17409e+06 1.6423e+06 2.10524e+06 1.75697e+06 -1.16867e+06 -319.275
48 2 16.5699 8.92649 7.29399 -5.4048e+06 -2.80634e+06 -1.30273e+06 -40704 942263 -1.44896e+06 -116.369
49 2 22.8379 3.33639 8.95086 -4.38507e+06 -3.58536e+06 -3.246e+06 -406513 -553017 903995 -67.209
52 2 16.9375 6.07433 6.53859 -2.39382e+06 -5.11473e+06 -4.0836e+06 -1.59983e+06 2.43322e+06 1.42579e+06 -112.041
53 2 22.2005 8.60705 4.31847 -1.69011e+06 -1.75652e+06 -1.88043e+06 -2.06929e+06 1.21628e+06 -1.55126e+06 -116.543
54 2 17.002 9.38673 9.82003 -1.17612e+06 -2.3358e+06 -3.45463e+06 -1.57614e+06 -894744 2.21227e+06 -118.958
55 2 22.3738 5.84622 4.56537 -3.01641e+06 2.00958e+06 -3.49923e+06 1.26021e+06 1.07926e+06 469977 -110.213
56 2 17.5014 6.84555 8.96125 -3.47207e+06 2.14827e+06 -3.58967e+06 -564752 1.19153e+06 1.86312e+06 -114.348
57 2 21.1155 5.34808 9.12096 -3.13092e+06 -3.4691e+06 -4.71862e+06 1.49316e+06 892776 341106 -102.768
58 1 19.957 4.23417 9.20841 1.49643e+06 4.85388e+06 6.03286e+06 1.86116e+06 474960 410136 -331.695
59 1 17.4461 5.48108 7.94092 4.28795e+06 4.24829e+06 5.02956e+06 1.28058e+06 -1.86931e+06 3.98838e+06 -323.147
60 2 18.8489 4.67406 8.01014 -275713 -2.18994e+06 -2.5296e+06 -2.7645e+06 1.72253e+06 -1.6456e+06 -109.807
61 1 17.4515 8.40844 8.59534 2.95741e+06 279928 6.48674e+06 -645884 -2.23984e+06 -3.09699e+06 -315.877
62 2 18.9716 8.65832 8.00417 -395043 -4.47296e+06 -3.18771e+06 937731 66448.3 830769 -112.688
63 2 17.874 9.1977 4.91962 -2.14965e+06 -4.85406e+06 -313274 -548081 -2.74296e+06 -644606 -114.147
64 1 22.6056 5.63521 9.75663 2.51e+06 9.81553e+06 5.94312e+06 -1.23582e+06 -808905 724067 -346.342
68 2 21.7077 9.22901 8.24043 3.76347e+06 -2.25924e+06 -2.84897e+06 1.9802e+06 -1.15331e+06 718156 -111.88
69 1 20.1216 9.42555 8.82842 1.21418e+06 3.88854e+06 8.1078e+06 -3.56537e+06 -2.28256e+06 640850 -318.432
70 1 22.7846 4.29752 4.79176 1.16621e+06 1.80771e+06 7.84725e+06 -2.92506e+06 -1.97707e+06 -1.20399e+06 -333.857
71 2 21.4792 3.39959 4.83071 -3.16895e+06 -4.91236e+06 -5.9074e+06 1.24763e+06 967151 641560 -105.868
94 2 17.1938 4.3302 3.31668 -1.69971e+06 -2.85949e+06 -3.5611e+06 -1.52631e+06 -885765 1.07816e+06 -112.851
222 1 23.1411 7.36229 4.85009 4.73306e+06 5.03387e+06 2.42463e+06 1.04173e+06 -3.94077e+06 1.18608e+06 -309.835
2263 1 28.438 6.38288 5.855 5.34386e+06 6.98625e+06 5.28825e+06 2.37512e+06 -2.93239e+06 -1.27399e+06 -322.668
2264 1 25.4624 5.64351 8.40833 5.5508e+06 2.09838e+06 2.85406e+06 -750260 -1.00583e+06 -1.11942e+06 -338.666
2265 2 25.7728 7.09001 7.80654 -5.41231e+06 -2.2483e+06 -4.00962e+06 -1.66845e+06 2.03579e+06 -1.09876e+06 -106.218
2266 1 24.8885 8.2424 6.99415 4.85544e+06 2.92768e+06 3.439e+06 -852857 -1.33725e+06 305558 -320.254
2267 2 26.1914 5.64524 9.90346 -1.36634e+06 -2.73457e+06 -2.25329e+06 1.25795e+06 1.77083e+06 1.89616e+06 -108.167
2268 2 25.8073 4.32597 7.61939 -5.08819e+06 -1.50353e+06 -2.93179e+06 900132 739972 858431 -112.298
2269 2 28.171 7.15902 9.0537 -4.333e+06 -2.67564e+06 -6.53075e+06 928938 -777852 -799940 -111.266
2270 2 26.8439 6.18444 5.47865 3.07894e+06 -4.43206e+06 -2.74939e+06 -92111.7 3.18662e+06 -594964 -114.203
2271 2 28.7489 7.80582 6.70472 -2.82495e+06 -776802 -1.35752e+06 6207.98 1.65931e+06 3.51134e+06 -112.498
2272 1 28.9423 8.35168 8.24459 6.67146e+06 2.16956e+06 4.32557e+06 1.72869e+06 1.02244e+06 1.96485e+06 -321.802
2273 2 25.9026 8.92984 5.9099 -1.83114e+06 -3.12918e+06 -3.63405e+06 2.21434e+06 -1.25407e+06 -694394 -116.045
2274 1 26.0998 6.54109 4.00437 3.18865e+06 4.56294e+06 5.51572e+06 -1.67585e+06 2.29675e+06 1.28042e+06 -314.818
2276 2 24.5842 7.16865 3.99398 491788 -1.73782e+06 -2.82654e+06 -2.55299e+06 -939440 -496629 -121.784
2277 2 23.8281 5.77417 8.67088 -1.37945e+06 -6.5215e+06 -1.78443e+06 -980152 -2.02177e+06 -559184 -99.1959
2278 2 23.5821 7.64901 6.3296 -4.20148e+06 -2.78581e+06 -4.71055e+06 185062 548934 1.02106e+06 -122.589
2279 2 29.0781 3.82466 9.32234 -3.99122e+06 -3.79263e+06 -1.06303e+06 -334852 -366483 -436685 -111.728
2280 2 28.8743 5.24753 7.0562 -1.24527e+06 -1.82872e+06 -184968 -1.97442e+06 1.83564e+06 -2.18361e+06 -111.849
2281 2 28.984 3.621 4.53965 -3.15408e+06 -469573 -3.40025e+06 1.09864e+06 342297 -2.15788e+06 -110.705
2282 2 24.4631 9.36472 8.18635 -360219 -774397 -127360 -2.836e+06 -2.21906e+06 2.31192e+06 -112.352
2283 1 25.5463 3.59393 3.56951 8.11193e+06 5.47978e+06 3.41172e+06 304471 2.99163e+06 -2.37777e+06 -323.916
2284 2 29.4528 6.12328 4.5415 -907748 -2.80084e+06 559434 -1.91699e+06 -2.71026e+06 2.19045e+06 -117.158
2285 2 23.8836 3.8678 3.64437 533232 -3.53021e+06 -4.49297e+06 -1.11031e+06 -1.63395e+06 450981 -108.126
2286 2 23.7182 4.06299 6.114 -2.17491e+06 -1.20948e+06 -4.75192e+06 -1.08294e+06 1.92938e+06 -2.07016e+06 -109.809
2288 2 27.0487 7.75245 3.44295 -3.80499e+06 -2.33316e+06 -5.54517e+06 250691 -1.40211e+06 -1.69707e+06 -112.692
2336 2 28.3203 9.85873 8.37564 -3.97961e+06 2.02299e+06 -3.24181e+06 -956406 897603 -1.00602e+06 -117.998
2291 1 29.936 4.61095 8.1787 7.35365e+06 4.0415e+06 64927.9 375026 2.64521e+06 -958419 -323.685
2292 1 30.1361 4.72759 4.07903 7.90357e+06 3.00338e+06 459328 1.91954e+06 583204 2.75417e+06 -321.033
2293 2 30.5871 8.36119 8.59407 2.11427e+06 -3.90102e+06 -2.84484e+06 -1.31384e+06 165708 61997.2 -116.757
2294 1 31.666 7.17975 8.59432 558030 6.58828e+06 5.87168e+06 724136 -549911 1.11518e+06 -322.691
2295 2 32.2519 6.66952 7.15496 -1.18967e+06 -2.54711e+06 -936322 421508 -1.84119e+06 143970 -112.603
2296 2 34.5871 6.07965 6.01179 -711992 -1.95818e+06 -1.49446e+06 -2.1899e+06 -1.68003e+06 332615 -117.586
2297 1 33.4423 7.20492 6.05472 6.0491e+06 4.46596e+06 4.33235e+06 1.88989e+06 3.10337e+06 396170 -317.58
2298 2 30.7618 5.81878 8.94139 -2.11482e+06 -1.30552e+06 -4.13705e+06 2.41298e+06 1.86099e+06 608166 -110.018
2299 1 35.7551 5.53194 4.9521 6.85499e+06 3.32731e+06 4.17036e+06 2.36576e+06 1.62237e+06 -963161 -317.303
2300 2 34.0684 8.64745 6.58856 -3.11242e+06 1.96501e+06 -3.01742e+06 3.0452e+06 -1.11619e+06 -29285.2 -113.903
2301 2 32.6253 7.71623 4.69811 -802629 -755802 -1.58115e+06 -2.82771e+06 1.51384e+06 -2.56763e+06 -119.806
2302 2 32.9744 7.45623 9.60988 -324727 -3.24217e+06 -2.14105e+06 498780 2.15418e+06 -235835 -115.524
2303 2 31.4028 4.4439 5.10199 -1.8696e+06 -1.93723e+06 -705320 -864714 1.31945e+06 -2.58997e+06 -115.119
2304 2 35.5624 7.89598 9.36836 -2.49987e+06 458973 -3.42801e+06 4.26215e+06 416483 -536852 -115.502
2306 2 34.391 5.22772 9.42494 -2.80985e+06 1.97034e+06 -4.43773e+06 670875 812849 111296 -116.764
2307 1 32.2816 9.18734 4.03362 4.94706e+06 8.37029e+06 3.8321e+06 904899 -2.55233e+06 569882 -313.076
2310 2 34.9596 4.74657 3.69284 -2.99645e+06 -3.00269e+06 -4.03363e+06 101206 361597 1.13999e+06 -115.214
2311 2 31.0408 3.60192 7.5891 -2.87727e+06 -3.0289e+06 -2.02649e+06 -1.32187e+06 686151 1.6882e+06 -120.606
2313 2 30.7118 9.80182 3.98684 2.23808e+06 -2.02617e+06 -1.96063e+06 -2.95041e+06 -1.24584e+06 280155 -117.814
2314 2 35.9776 9.68118 5.00037 1.20006e+06 -3.00006e+06 -3.47218e+06 1.36079e+06 -2.84052e+06 699668 -113.545
2316 2 36.615 4.22631 5.522 -2.71706e+06 1.87161e+06 -2.54166e+06 -2.24473e+06 -996205 844580 -111.338
2317 2 36.7142 6.71737 4.40052 -2.53025e+06 -906311 -1.09629e+06 1.13801e+06 -1.66173e+06 -1.89997e+06 -117.836
2318 2 39.7202 4.4955 6.86168 -4.59492e+06 -2.76566e+06 -416011 -475879 -936728 715953 -120.592
2319 2 40.6322 7.43873 8.95609 -2.41783e+06 76135.6 -4.35282e+06 -1.70323e+06 -1.44429e+06 1.33817e+06 -115.73
2320 1 41.7704 6.30126 9.31979 1.82255e+06 2.36029e+06 5.10361e+06 -981889 477675 -1.52175e+06 -315.696
2321 1 39.9381 4.16756 8.38951 6.99533e+06 2.35739e+06 47961.9 -1.05335e+06 1.49445e+06 -3.33247e+06 -316.924
2322 1 40.2605 8.89405 9.5956 2.03956e+06 4.18141e+06 8.11221e+06 1.75276e+06 -94306.1 1.60655e+06 -318.774
2323 2 41.3095 4.82735 8.96306 -3.97983e+06 -4.20083e+06 -2.34e+06 715879 628662 1.65634e+06 -118.037
2324 1 40.5337 4.47565 5.43078 5.0927e+06 4.95565e+06 2.81665e+06 -1.83135e+06 243838 1.46894e+06 -313.417
2325 2 39.7973 5.64859 4.40489 -2.12902e+06 -1.04102e+06 1.20308e+06 -1.48511e+06 1.95703e+06 -2.89264e+06 -110.745
2326 2 38.787 4.94263 9.39358 -2.36952e+06 -2.37401e+06 59658.1 -663964 -1.63642e+06 2.25011e+06 -110.496
2327 2 42.0597 4.91448 5.81121 -287729 -4.22503e+06 -2.17845e+06 22148.3 -380011 655062 -114.353
2330 2 39.0202 9.53523 8.68787 -968456 -2.64743e+06 -2.56702e+06 -1.85968e+06 1.74064e+06 -2.20653e+06 -112.163
2332 2 41.6282 9.84183 9.38867 2.74867e+06 -1.71614e+06 -2.76667e+06 2.22568e+06 913900 -792967 -118.372
25 1 6.37727 16.0776 3.45731 2.10314e+06 2.57206e+06 2.80006e+06 -861851 -1.13075e+06 -670785 -324.55
51 2 3.40689 11.0004 6.63397 -1.8166e+06 -3.60045e+06 1.50545e+06 -986439 2.7033e+06 -1.10006e+06 -114.639
74 2 3.3144 12.9328 8.47233 -3.76251e+06 -746818 -2.10016e+06 151343 -410440 2.57743e+06 -115.72
76 1 3.92314 14.5215 4.37401 5.58523e+06 2.12904e+06 5.84232e+06 882686 -374502 1.83249e+06 -330.472
77 2 8.27771 10.6341 8.94149 -1.46841e+06 304125 -2.32322e+06 2.96827e+06 -772873 -938535 -116.491
78 2 4.4105 10.7501 9.25982 -3.0819e+06 -3.00978e+06 572876 1.70462e+06 -1.70876e+06 -1.78682e+06 -116.888
79 1 4.19107 11.6478 7.92582 4.0952e+06 5.12307e+06 1.8343e+06 513167 2.31562e+06 254148 -323.26
80 1 6.68633 11.4475 6.3325 1.08439e+06 5.61872e+06 3.5586e+06 1.1884e+06 616824 1.90176e+06 -326.084
81 2 5.60532 12.1481 7.34782 -1.52233e+06 -3.18778e+06 -3.58749e+06 -1.3822e+06 -1.7483e+06 609696 -113.415
82 2 8.18641 11.9115 6.67425 -1.30188e+06 -3.95639e+06 -2.77069e+06 -992542 2.36219e+06 -232891 -112.709
83 2 6.25232 11.9214 4.8406 -2.9531e+06 -3.29008e+06 -1.37268e+06 122024 -395583 -2.11232e+06 -109.292
84 2 8.94486 14.9755 7.64798 -3.42248e+06 -1.18516e+06 -3.40194e+06 -1.01191e+06 -321614 -1.173e+06 -114.551
85 2 4.74981 15.2518 9.23106 -848817 99043.2 -3.95912e+06 3.16381e+06 205193 409063 -116.661
86 1 9.2345 11.3769 7.8537 3.21251e+06 3.35424e+06 7.60481e+06 -3.32984e+06 135835 542039 -323.022
87 2 5.49303 15.0169 4.32005 -304186 -4.15279e+06 -4.19227e+06 2.75161e+06 -1.10379e+06 -2.39757e+06 -108.573
88 2 8.39545 13.251 3.92679 -1.84709e+06 -1.72909e+06 -4.42567e+06 1.5847e+06 -388484 -928472 -111.262
89 1 7.09221 12.3937 3.50231 5.81525e+06 3.68771e+06 5.12831e+06 -1.74999e+06 2.18044e+06 1.08672e+06 -346.174
90 2 7.97473 15.793 3.50476 -1.18723e+06 -2.53788e+06 -3.10221e+06 -1.02665e+06 -349611 670322 -123.382
95 1 3.47481 14.2073 9.46943 6.45088e+06 4.18278e+06 5.06265e+06 582377 2.45976e+06 -3.93026e+06 -312.996
150 1 8.6498 16.5287 7.3714 6.47533e+06 3.8386e+06 2.58377e+06 2.00915e+06 -1.25497e+06 1.33054e+06 -320.703
91 2 10.109 12.696 8.3799 -2.05676e+06 -502924 -5.06991e+06 3.06209e+06 356606 448612 -112.393
97 2 10.3858 10.3369 7.28525 2.41184e+06 -3.09724e+06 -2.70947e+06 -1.35358e+06 -2.64651e+06 434050 -114.035
98 1 10.3366 14.1183 7.67362 3.16781e+06 468471 5.27835e+06 190742 -656219 1.67922e+06 -325.306
99 2 10.6144 13.7583 6.10674 -4.48441e+06 -2.34566e+06 521046 247004 -194597 -614318 -113.757
100 2 15.5652 10.5119 5.34057 -1.68347e+06 -1.83475e+06 -3.18294e+06 -1.30674e+06 960567 -1.7784e+06 -119.112
101 1 11.9755 10.2605 6.71177 7.23765e+06 3.09713e+06 5.02568e+06 1.24374e+06 -581880 -1.66617e+06 -320.794
102 2 12.1346 10.4432 5.08605 -2.71285e+06 -1.39504e+06 886943 899884 -1.72698e+06 -2.57803e+06 -118.82
103 1 11.5113 14.3539 4.83171 6.58788e+06 2.40562e+06 4.96163e+06 313799 786368 -893423 -324.887
104 2 12.8066 11.5772 7.33844 -1.87876e+06 -1.46331e+06 -1.78443e+06 987286 2.45046e+06 2.30453e+06 -113.17
105 2 12.0305 10.8706 9.64097 -2.28572e+06 -3.10449e+06 -2.68959e+06 2.14274e+06 -1.54444e+06 -1.69919e+06 -115.035
106 2 14.6316 10.7634 9.22451 465257 -2.05595e+06 -2.86074e+06 -3.0498e+06 254249 -663121 -115.37
107 2 11.3878 15.0684 8.45661 -2.14015e+06 -2.54209e+06 -2.06473e+06 -737207 2.06907e+06 314409 -119.162
108 1 13.2673 11.6944 8.90412 4.8256e+06 4.96361e+06 3.1584e+06 -774063 -710959 -508020 -320.522
109 2 13.9802 15.5909 8.20044 984334 -2.54919e+06 -4.29956e+06 1.28921e+06 -1.01823e+06 -800388 -112.656
110 2 13.3632 13.2692 9.3065 -2.1587e+06 2.52368e+06 -3.70131e+06 -1.60162e+06 489814 -252916 -118.383
111 1 12.8359 14.8699 9.14527 603832 4.59979e+06 7.05189e+06 -4.20962e+06 -3.01702e+06 -2.72847e+06 -321.02
113 1 15.5926 15.5885 8.63974 3.51567e+06 6.394e+06 2.38204e+06 1.22182e+06 4.82016e+06 58688.7 -324.277
114 2 12.2729 15.726 5.30861 -3.705e+06 -256771 -2.94266e+06 1.52423e+06 -738347 -559149 -109.294
115 1 12.5412 11.5785 3.94042 3.76047e+06 7.34939e+06 1.63626e+06 1.70546e+06 -1.01998e+06 20106.8 -321.561
116 2 12.5556 13.1592 4.50759 -3.695e+06 1.40493e+06 -3.76952e+06 -1.55887e+06 55131.8 8159 -111.562
117 1 16.2237 10.7661 9.56294 3.74823e+06 1.20839e+06 4.15253e+06 1.92741e+06 2.04224e+06 -31951.5 -323.551
118 1 15.5136 11.3537 3.95279 -58984 3.42022e+06 7.48174e+06 1.06137e+06 -1.35745e+06 1.32199e+06 -325.686
119 2 16.0393 12.8269 4.237 -3.16318e+06 -4.28014e+06 -3.98751e+06 11090.6 574214 253775 -108.974
120 2 16.2115 15.0268 5.69439 -3.69935e+06 -22752.5 -4.22348e+06 -280625 -360733 1.03427e+06 -104.939
122 2 10.5403 14.8285 3.5576 1.1711e+06 -3.62606e+06 -1.09889e+06 -996824 2.42642e+06 -980471 -115.195
123 2 16.2228 14.0848 8.5222 -1.46579e+06 -309416 -3.20641e+06 -2.75749e+06 -1.83388e+06 1.19307e+06 -110.92
147 2 16.5569 16.5481 7.71411 -2.31973e+06 -3.54089e+06 -896151 386626 -1.63726e+06 -1.97609e+06 -110.213
73 1 18.1124 9.96077 3.50382 1.51375e+06 6.82586e+06 4.02555e+06 -2.18806e+06 4.31277e+06 -433494 -314.372
128 2 18.8373 11.3302 3.93797 -3.78555e+06 -3.81222e+06 -4.08022e+06 -357387 73606.1 1.5435e+06 -116.462
129 2 17.0461 11.5287 8.4195 -4.23686e+06 -2.86539e+06 -4.70446e+06 693282 -217627 -1.07927e+06 -112.575
130 1 17.0896 13.7807 4.99731 7.38092e+06 1.91658e+06 5.4991e+06 -1.55209e+06 -1.83528e+06 -2.59234e+06 -349.819
131 2 22.6663 13.9824 6.61809 -2.21772e+06 -3.74626e+06 -294559 53560.7 2.26367e+06 -1.1653e+06 -115.726
132 2 21.9845 14.5792 4.12181 -4.98355e+06 -4.27443e+06 -2.7585e+06 413683 -2.33893e+06 -1.65062e+06 -105.288
133 1 20.1138 12.5282 9.34904 2.70324e+06 6.29762e+06 3.93644e+06 220236 -778404 -738682 -310.573
134 2 18.7312 13.4336 8.95083 114119 -3.73032e+06 -1.65023e+06 -2.07567e+06 2.32057e+06 -1.09927e+06 -114.135
135 2 19.7491 11.0333 8.742 -2.46422e+06 1.02227e+06 -4.36824e+06 788383 -162768 168786 -118.049
136 2 17.6787 13.0892 6.33952 -3.77872e+06 -3.66186e+06 2.67613e+06 1.00095e+06 24055.2 145957 -111.682
137 1 17.4858 13.0381 8.02554 3.31122e+06 4.11352e+06 6.74254e+06 43856.2 -1.32869e+06 3.28961e+06 -322.938
138 2 21.4508 13.3205 8.81662 -1.49451e+06 -2.98719e+06 -4.01152e+06 1.53954e+06 254485 -346210 -120.325
139 2 20.2197 14.9984 5.9599 -1.64227e+06 -3.64238e+06 -5.36608e+06 -2.27886e+06 354083 -1.40853e+06 -110.846
140 2 20.7775 12.5142 5.24624 -3.42198e+06 -1.85063e+06 -2.03917e+06 1.03002e+06 360176 2.67527e+06 -117.349
141 1 21.4071 13.9815 5.56794 5.30033e+06 2.16518e+06 3.64312e+06 -388942 77228.2 606408 -323.814
142 2 18.0468 14.5362 3.94232 -2.83407e+06 -895163 200609 787875 -330086 -730220 -68.2757
143 1 22.837 13.1751 8.02803 3.24042e+06 3.65622e+06 4.00884e+06 -1.30297e+06 -732251 1.61301e+06 -318.883
145 1 20.3355 11.8812 3.84801 3.04204e+06 2.87507e+06 5.38567e+06 -3.26715e+06 -3.28807e+06 -2.11733e+06 -325.813
146 1 19.7126 16.4515 5.4979 2.24971e+06 2.28797e+06 6.26783e+06 -492868 2.56974e+06 3.00336e+06 -334.068
149 1 23.0568 10.2352 8.46626 6.56638e+06 4.73889e+06 2.50106e+06 1.84951e+06 2.44113e+06 -956390 -315.823
220 2 22.9153 11.5698 7.55336 -2.90479e+06 1.53939e+06 -4.32601e+06 -412162 -334519 566307 -115.61
2337 2 27.9273 10.0358 4.41082 2.91929e+06 -4.76237e+06 -2.98903e+06 -141772 -126796 -252274 -116.152
2338 1 26.4999 10.2919 5.22035 2.94168e+06 6.89515e+06 3.59116e+06 -2.70734e+06 -1.47044e+06 1.33475e+06 -318.199
2339 2 24.0938 13.7202 8.93382 -2.00121e+06 -55586.1 -1.27035e+06 1.64011e+06 1.45437e+06 2.22977e+06 -117.491
2341 2 25.2678 10.7415 4.23049 -495014 -3.36981e+06 -518261 588457 2.85691e+06 -42536.3 -117.367
2342 2 26.9922 11.2379 6.49333 -448078 -3.50758e+06 147320 796769 2.80153e+06 1.10231e+06 -115.21
2343 1 28.3956 11.1595 7.39016 8.81092e+06 3.71548e+06 -874938 -270359 -655446 -3.3915e+06 -318.634
2344 1 26.0886 14.8153 4.90429 3.11804e+06 6.90108e+06 5.39077e+06 632555 -489240 -685229 -316.78
2345 2 26.0025 15.5233 9.19316 -1.69101e+06 -5.32698e+06 -4.68097e+06 1.19901e+06 -1.4875e+06 460405 -107.193
2346 2 26.1765 14.9324 6.55226 -2.45555e+06 -4.05881e+06 1.92203e+06 1.13061e+06 1.11421e+06 2.20495e+06 -107.237
2347 1 24.5998 14.958 9.90872 3.82839e+06 5.92657e+06 4.94993e+06 -332997 -876409 -351348 -325.11
2348 2 24.6119 14.4303 4.3562 -287929 -3.29895e+06 -3.13801e+06 -851089 1.35381e+06 -485653 -115.156
2349 2 28.6849 12.5749 8.11671 -3.8536e+06 -1.13614e+06 294852 -85359.8 -82620.9 1.60314e+06 -119.322
2350 1 26.6632 15.9445 7.8138 4.63281e+06 4.35201e+06 2.48509e+06 -635880 177876 2.38573e+06 -325.817
2351 1 28.7731 12.9787 9.70724 6.68277e+06 615767 4.36939e+06 -195721 -1.5215e+06 -2.13714e+06 -320.013
2352 2 27.1171 13.5831 4.41357 -2.46007e+06 766001 -2.26721e+06 -2.93892e+06 -820298 1.67551e+06 -116.378
2353 1 29.4892 10.6275 4.67805 2.25892e+06 7.51007e+06 6.80146e+06 3.00245e+06 2.20244e+06 -404781 -318.333
2354 1 29.282 15.8901 9.28734 3.61845e+06 4.8106e+06 3.22558e+06 -2.47649e+06 1.70582e+06 271493 -314.026
2355 2 29.5884 10.7626 6.34136 -2.47182e+06 -2.96239e+06 1.46419e+06 -815505 -1.24914e+06 634369 -118.728
2356 2 29.3536 12.1452 3.90591 -3.03652e+06 1.14979e+06 -1.38939e+06 -2.653e+06 780141 -3.55329e+06 -109.023
2357 2 28.2989 16.0385 7.93935 883185 -2.45039e+06 -297056 -630149 2.71469e+06 -773299 -121.021
2360 2 26.142 16.5412 4.57165 -2.50661e+06 -404968 -4.53137e+06 -1.49872e+06 1.16091e+06 1.58916e+06 -113.563
2361 2 29.6203 14.3226 9.77542 -4.68446e+06 -1.02883e+06 -3.49783e+06 -1.02538e+06 375696 -2.20783e+06 -114.827
2362 1 23.346 15.3588 3.85806 2.71043e+06 2.05574e+06 1.58544e+06 -1.10763e+06 3.15692e+06 206599 -323.155
2365 1 28.3044 13.3156 3.31452 2.38388e+06 4.1285e+06 7.09389e+06 -1.66833e+06 -508778 276102 -316.949
2479 2 29.0609 14.7634 3.32288 -703953 -599207 -3.73565e+06 2.46004e+06 1.42988e+06 1.56703e+06 -122.605
2368 1 34.5702 10.0537 5.78595 5.10197e+06 3.57996e+06 4.11277e+06 -1.82791e+06 328090 -3.50968e+06 -321.26
2369 2 33.2597 10.2505 4.84157 110197 -3.35641e+06 -2.82909e+06 1.62415e+06 1.58033e+06 1.76179e+06 -116.461
2370 2 35.7269 15.5521 3.81573 -3.29969e+06 36307.7 -833433 -624196 -148900 -3.08867e+06 -117.295
2371 2 34.8329 12.9375 3.81351 -3.18399e+06 -677760 -957436 -277590 -2.07124e+06 1.23125e+06 -114.598
2375 2 34.6464 13.4049 8.48296 -2.16186e+06 -1.43004e+06 89879.9 639693 2.42789e+06 1.20288e+06 -117.391
2376 2 34.8364 11.3919 6.65528 -4.82102e+06 -1.34221e+06 -2.9402e+06 -286418 420506 1.73875e+06 -115.397
2377 1 33.8777 12.2234 7.63754 6.81903e+06 3.89423e+06 -1.597e+06 1.76662e+06 -1.90667e+06 55824.3 -327.598
2378 2 31.338 15.0721 6.83435 -3.38413e+06 -2.4084e+06 -2.17625e+06 -398148 -1.25678e+06 1.50446e+06 -111.474
2379 1 32.2161 14.1039 5.83692 3.4171e+06 3.6607e+06 5.5944e+06 2.23432e+06 -1.20001e+06 107100 -325.94
2380 1 35.0742 14.3097 4.73227 2.9794e+06 6.40462e+06 3.36635e+06 291588 -636018 826116 -320.561
2381 2 33.6709 14.746 5.43612 186326 -3.94353e+06 -2.77305e+06 -492605 -1.85034e+06 -314760 -117.693
2382 2 32.6304 12.8433 6.85845 -3.30153e+06 -3.36844e+06 -1.65437e+06 -941073 1.25308e+06 -1.27841e+06 -109.022
2383 2 33.2696 11.0823 8.64224 -3.77606e+06 -2.3614e+06 -1.22074e+06 517272 -45718.4 -1.03013e+06 -110.643
2384 2 31.351 13.9235 4.48532 -1.81218e+06 -2.80165e+06 -405172 -2.29795e+06 2.21851e+06 -2.79079e+06 -112.495
2387 2 36.1737 13.8499 5.83181 -1.65427e+06 -3.35267e+06 -2.24336e+06 -46108 2.17199e+06 4304.2 -114.473
2388 1 31.6104 16.5263 7.54435 3.03928e+06 5.18351e+06 1.80354e+06 -1.60057e+06 1.82188e+06 -245412 -322.96
2389 2 31.2508 16.4806 4.10624 -3.3978e+06 -1.43416e+06 -2.74359e+06 949997 658546 889572 -120.779
2390 2 33.2363 16.5462 7.85619 1.23478e+06 -1.96683e+06 -2.89799e+06 1.30864e+06 625242 -245960 -114.788
2434 2 35.6244 16.52 8.98832 -4.32327e+06 -2.16182e+06 -29706.4 -856802 1.04914e+06 -2.28468e+06 -114.65
2435 2 30.6946 16.5584 8.88092 -795820 -3.90262e+06 -2.36532e+06 966030 -2.32235e+06 -157664 -117.946
2480 1 30.6439 15.0875 3.45953 3.21136e+06 4.35264e+06 5.25355e+06 -2.22822e+06 811910 -1.38186e+06 -312.794
2366 2 43.035 13.3402 5.35325 -1.74233e+06 -1.61262e+06 -3.06485e+06 2.31996e+06 -1.0314e+06 -2.27483e+06 -111.094
2393 2 36.5508 10.4863 8.86388 -115639 -347652 -3.43117e+06 1.93529e+06 -3.27122e+06 -1.56427e+06 -118.091
2394 2 42.8707 15.8656 4.75878 -3.68705e+06 -3.32741e+06 -5.54417e+06 -1.03195e+06 570598 288120 -107.743
2395 1 37.0414 10.2284 3.83709 6.61038e+06 2.27637e+06 5.76544e+06 351195 -1.73974e+06 -1.58207e+06 -323.816
2397 2 38.2019 11.0714 6.63287 -2.519e+06 -3.13089e+06 -618406 315528 -2.10395e+06 -944077 -117.543
2398 1 38.0527 10.7987 8.25272 6.09254e+06 3.19782e+06 4.92046e+06 571337 820019 2.0393e+06 -318.199
2399 2 37.6631 14.4123 8.08331 -3.18599e+06 -2.73547e+06 1.49532e+06 -39236.1 783935 -1.49996e+06 -116.05
2400 1 37.5626 14.5145 6.42623 6.7822e+06 2.3504e+06 5.63673e+06 2.66805e+06 -2.81235e+06 2.08756e+06 -329.354
2401 1 39.0145 11.8702 5.46047 4.76718e+06 8.07583e+06 4.3593e+06 -299557 1.1974e+06 -271084 -319.982
2402 2 38.7329 13.5448 5.73942 -3.29645e+06 1.08221e+06 -1.78504e+06 -2.00836e+06 -1.19699e+06 1.73751e+06 -104.051
2403 1 38.0561 13.5527 9.43731 2.99018e+06 4.90104e+06 5.61473e+06 -1.00936e+06 -241407 -1.75773e+06 -318.857
2404 2 38.7252 12.1525 8.9502 -2.73745e+06 239684 -3.27284e+06 699410 802776 1.29308e+06 -116.435
2405 2 40.7081 11.785 5.59989 5.03695e+06 -4.1044e+06 -2.60583e+06 1.06806e+06 230818 -228808 -108.948
2406 1 42.3987 11.8311 5.40438 5.97715e+06 7.65128e+06 2.82751e+06 -958085 -906033 -39819.9 -324.996
2407 2 41.7583 15.0989 9.27232 1.34486e+06 -3.53776e+06 -4.50216e+06 -461775 380216 -442086 -111.623
2409 2 38.221 11.3579 4.11783 860609 -1.57608e+06 -3.25978e+06 2.10804e+06 2.10908e+06 1.13499e+06 -116.881
2410 2 37.833 16.0173 5.88702 -3.82504e+06 1.50042e+06 -3.23402e+06 -536727 212920 -1.65905e+06 -110.628
2411 2 42.7147 11.1871 3.91023 -3.66657e+06 -3.56192e+06 1.3143e+06 144986 -769828 688379 -109.471
152 2 7.38342 16.8129 6.36641 -1.60888e+06 -2.21995e+06 -1.76485e+06 -951504 1.11933e+06 -2.43325e+06 -112.316
153 2 8.11726 17.2037 8.80676 -4.35927e+06 -5.29817e+06 -1.43922e+06 -1.04652e+06 -1.5617e+06 870333 -107.499
158 2 6.06787 17.4803 4.22227 -3.76048e+06 -2.83308e+06 -2.78745e+06 -450547 583161 2.33977e+06 -113.047
159 1 4.19754 21.2516 7.01393 5.35764e+06 7.01138e+06 3.1788e+06 679831 809701 -289608 -331.852
160 2 6.5698 20.8226 4.2082 -1.14886e+06 -3.17022e+06 -1.96034e+06 1.47505e+06 3.46731e+06 783780 -111.756
162 1 4.34316 19.3086 9.53863 4.52713e+06 4.02783e+06 5.19306e+06 -1.48109e+06 627404 1.84157e+06 -322.009
163 2 5.26547 17.9647 9.28091 -3.3916e+06 1.94465e+06 -3.56761e+06 -1.91579e+06 821522 -2.45289e+06 -110.96
164 1 7.08679 18.0679 5.32687 2.92731e+06 1.76511e+06 5.39531e+06 589112 -2.30171e+06 -2.41092e+06 -317.598
165 2 6.68983 19.3677 6.27039 -3.18624e+06 -749384 -3.50575e+06 -195131 133681 2.28325e+06 -111.41
166 2 5.70462 21.7168 6.4632 1.75266e+06 -4.7921e+06 -3.37493e+06 -226235 -2.44556e+06 -259035 -107.864
167 2 8.59354 21.2207 6.00537 1.82297e+06 -3.00056e+06 -3.97782e+06 -664649 598751 118666 -111.378
168 1 6.95654 20.9021 5.80085 3.3301e+06 3.41954e+06 6.36677e+06 625253 -415780 -1.27479e+06 -328.49
169 2 8.36869 18.6036 4.43093 -2.42599e+06 -4.37217e+06 -2.05413e+06 -401292 -1.0768e+06 -46323.2 -115.049
171 2 4.29158 20.5854 8.47605 -3.58542e+06 -1.80355e+06 -2.79795e+06 -613672 58717.1 -2.23791e+06 -112.611
172 2 4.29643 22.0973 3.99866 -3.43956e+06 -1.6594e+06 -4.64026e+06 -1.81834e+06 -373660 -82164.8 -109.698
173 2 3.76311 20.0878 5.92667 -4.9672e+06 -3.25214e+06 -1.48587e+06 1.79468e+06 387559 2.34711e+06 -106.369
175 2 3.91681 19.6998 3.40052 2.89097e+06 -2.82946e+06 -2.72189e+06 2.07401e+06 -1.72601e+06 -648803 -111.693
176 1 9.85652 18.7059 3.75795 1.89419e+06 6.24233e+06 2.06188e+06 -67454.1 -940414 -969761 -318.57
177 2 9.65434 19.3557 8.88135 -4.31912e+06 -4.44713e+06 -1.92791e+06 -1.74228e+06 -1.53378e+06 831760 -102.144
178 2 9.91458 17.5204 6.92907 -454374 1.87827e+06 -1.91291e+06 3.5131e+06 1.37925e+06 302886 -122.682
180 2 10.3393 20.1789 4.36492 -4.76528e+06 657588 -1.90644e+06 -213055 89633.6 2.35638e+06 -109.888
181 2 12.4586 22.9844 8.61455 1.11885e+06 -5154.44 -3.0089e+06 -3.64184e+06 -1.0324e+06 648003 -118.23
182 1 10.213 21.0248 5.77625 6.42268e+06 592709 7.06985e+06 -751667 23060 763879 -332.746
185 1 15.7509 22.7483 6.95137 5.05282e+06 4.16276e+06 2.8929e+06 -29964 317078 1.84159e+06 -322.12
186 2 10.9226 17.5217 4.03615 -2.26818e+06 -4.33849e+06 -4.68157e+06 -666445 -1.46454e+06 709209 -118.968
188 1 15.8959 21.0407 4.48054 4.28146e+06 3.0529e+06 5.52438e+06 628410 2.57966e+06 162133 -316.638
189 1 12.3704 17.1944 4.54943 763013 2.55532e+06 3.2913e+06 53176.8 -797936 -2.23614e+06 -324.716
190 2 11.0335 20.1122 6.87087 -2.08729e+06 750786 -2.61021e+06 -540163 2.21751e+06 -2.58966e+06 -110.641
191 2 10.8026 22.5409 5.78005 -4.09167e+06 3.29095e+06 -2.88851e+06 -1.30332e+06 58029.7 -452769 -109.007
192 2 13.015 20.4123 9.26767 -3.92602e+06 -482902 -3.9734e+06 29796 -808244 103624 -117.604
193 1 10.7354 18.7173 7.79493 3.33255e+06 8.24521e+06 4.94973e+06 -1.15185e+06 -742381 176580 -320.708